Control file title. For DL_FIELD 4.10
49910
    1MOL     C1    1   6.083   5.338   4.321  0.3281  0.1194 -0.3463
    1MOL     C2    2   6.207   5.326   4.235 -0.2935 -0.6206  0.3234
    1MOL     C3    3   6.329   5.369   4.284  0.2556 -0.0306  0.2557
    1MOL     C4    4   6.449   5.346   4.211 -0.1315  0.8696  0.8579
    1MOL    Cl5    5   6.595   5.382   4.281 -0.0060  0.0169 -0.4145
    1MOL     C6    6   6.437   5.297   4.079 -0.2154  0.5933  0.6122
    1MOL     C7    7   6.311   5.256   4.022  0.4662  0.3553 -0.3687
    1MOL     C8    8   6.195   5.274   4.102  0.5150 -0.3046  0.0485
    1MOL     C9    9   6.071   5.198   4.395 -0.0973 -0.4669  0.4780
    1MOL    H10   10   5.991   5.349   4.264  1.4266 -0.4757 -2.2875
    1MOL    H11   11   6.344   5.414   4.381 -0.2751  0.0631  0.2976
    1MOL    H12   12   6.516   5.273   4.010 -0.8671 -1.3489  0.4967
    1MOL    H13   13   6.304   5.231   3.918 -0.0471 -3.0120  0.4178
    1MOL    H14   14   6.102   5.244   4.056  1.6545 -1.5497 -1.4799
    1MOL    H15   15   6.039   5.117   4.329  0.0269 -1.1018  1.1906
    1MOL    H16   16   6.173   5.181   4.431 -0.7178 -1.1101  1.9535
    1MOL    H17   17   6.103   5.429   4.376 -0.6161 -0.2727  0.6572
    1MOL    C18   18   5.974   5.205   4.519  0.6049  0.2521 -0.1183
    1MOL    C19   19   5.841   5.291   4.502  0.4564  0.4221 -0.3620
    1MOL    C20   20   5.797   5.379   4.601  0.4748 -0.2528 -1.0647
    1MOL    C21   21   5.669   5.436   4.590 -0.8668 -0.2080 -0.4846
    1MOL   Cl22   22   5.610   5.532   4.728 -0.0998 -0.1063  0.0643
    1MOL    C23   23   5.584   5.417   4.477  0.2791 -0.3610  0.7199
    1MOL    C24   24   5.630   5.313   4.393  0.2019  0.7395  0.7691
    1MOL    C25   25   5.754   5.260   4.398 -1.2377 -0.0324 -0.0977
    1MOL    C26   26   5.950   5.063   4.576 -0.1139 -0.5574 -0.5169
    1MOL    H27   27   6.030   5.264   4.592 -0.7175  1.5586 -0.1253
    1MOL    H28   28   5.859   5.403   4.687  0.0164  1.6686 -1.2609
    1MOL    H29   29   5.484   5.456   4.481  0.1314 -0.8331  1.9993
    1MOL    H30   30   5.566   5.288   4.309  2.3014 -2.5830  0.0418
    1MOL    H31   31   5.786   5.189   4.323  0.7081  1.3644 -0.6393
    1MOL    H32   32   5.858   5.073   4.634 -1.5193 -1.5798 -2.5151
    1MOL    H33   33   5.930   5.000   4.490  0.2842 -2.3119  0.6456
    1MOL    C34   34   6.058   4.984   4.652  0.1698 -0.3845  0.1708
    1MOL    C35   35   6.201   4.987   4.599 -0.5239 -0.2059  0.0292
    1MOL    C36   36   6.302   5.072   4.654  0.4993  0.2489  0.0809
    1MOL    C37   37   6.435   5.080   4.611 -0.7207  0.8220 -0.2962
    1MOL   Cl38   38   6.541   5.197   4.680  0.4395  0.0271 -0.3717
    1MOL    C39   39   6.476   4.986   4.512 -0.2685  0.1643 -0.6959
    1MOL    C40   40   6.384   4.884   4.469  0.0834  0.1543 -0.2579
    1MOL    C41   41   6.244   4.885   4.507  0.0243 -0.7330  0.5602
    1MOL    C42   42   6.051   5.043   4.798 -0.3849  0.3897 -0.5767
    1MOL    H43   43   6.037   4.877   4.655 -0.7356 -0.2944 -1.9657
    1MOL    H44   44   6.272   5.146   4.727 -2.0835 -0.3225 -0.3548
    1MOL    H45   45   6.580   4.998   4.482 -0.5996  1.6257 -1.3229
    1MOL    H46   46   6.407   4.810   4.394  1.0486 -0.4637  0.6199
    1MOL    H47   47   6.170   4.815   4.472 -0.3676 -0.9139  1.7325
    1MOL    H48   48   6.137   5.007   4.854 -0.2157  0.9596 -0.4675
    1MOL    H49   49   6.063   5.150   4.812 -1.4926  0.7116 -1.9918
    1MOL    C50   50   5.931   4.993   4.888 -0.4331 -0.1671  0.5100
    1MOL    C51   51   5.903   4.848   4.858  0.1202  0.2526 -0.1801
    1MOL    C52   52   5.999   4.751   4.886 -0.6474 -0.1885 -0.0866
    1MOL    C53   53   5.958   4.615   4.870 -0.1492  0.2614  0.4922
    1MOL   Cl54   54   6.071   4.488   4.898 -0.2866 -0.1949 -0.2567
    1MOL    C55   55   5.829   4.581   4.822 -0.2319  0.7384 -0.3702
    1MOL    C56   56   5.732   4.678   4.796 -0.8427  0.1471  0.1670
    1MOL    C57   57   5.775   4.816   4.812  0.0866 -0.4463  0.3910
    1MOL    C58   58   5.943   5.012   5.035 -0.4203 -0.3793  0.9316
    1MOL    H59   59   5.845   5.051   4.854  0.7803  1.0776 -0.5068
    1MOL    H60   60   6.092   4.793   4.922 -0.5676  0.6715 -1.2495
    1MOL    H61   61   5.807   4.475   4.814  0.1580  0.6647 -0.4717
    1MOL    H62   62   5.633   4.654   4.763 -1.0767  1.7878 -0.3733
    1MOL    H63   63   5.707   4.895   4.784  0.2297  0.0629  1.4738
    1MOL    H64   64   5.878   4.939   5.082  0.2806 -0.4476  1.8191
    1MOL    H65   65   6.042   4.990   5.074 -0.4324  0.9596  1.7117
    1MOL    C66   66   5.908   5.165   5.082 -0.2205 -0.2522  0.0695
    1MOL    C67   67   5.779   5.173   5.166  0.6836  0.3234  0.4940
    1MOL    C68   68   5.774   5.101   5.286 -0.1346  0.9766 -0.1666
    1MOL    C69   69   5.659   5.096   5.369 -0.4760  0.9938 -0.3138
    1MOL   Cl70   70   5.655   5.024   5.528  0.3081  0.2110 -0.1190
    1MOL    C71   71   5.547   5.169   5.334  0.7212 -0.5768  0.5947
    1MOL    C72   72   5.550   5.243   5.210  0.7440  0.6400  0.6938
    1MOL    C73   73   5.661   5.242   5.122  0.0145 -0.3092  0.5839
    1MOL    C74   74   6.023   5.210   5.183 -0.6668  0.1589  0.6876
    1MOL    H75   75   5.885   5.228   4.996  0.9270  0.1491  0.0458
    1MOL    H76   76   5.862   5.052   5.325 -1.8920 -0.6621  1.8832
    1MOL    H77   77   5.462   5.171   5.400  0.4943 -0.5626  0.3059
    1MOL    H78   78   5.460   5.293   5.176  0.2051  0.0202  1.1920
    1MOL    H79   79   5.664   5.305   5.034 -0.7158  0.3408  1.0200
    1MOL    H80   80   5.986   5.289   5.248  2.5771  2.4494 -0.1369
    1MOL    H81   81   6.044   5.131   5.255  1.7722 -0.8310 -1.0289
    1MOL    C82   82   6.156   5.260   5.114  0.2522  0.0317 -0.1813
    1MOL    C83   83   6.129   5.377   5.018 -0.0401 -0.1352 -0.1863
    1MOL    C84   84   6.021   5.476   5.033 -0.1943  0.4530  0.0296
    1MOL    C85   85   6.019   5.590   4.951 -0.2965 -0.1255 -0.0624
    1MOL   Cl86   86   5.882   5.700   4.953 -0.3432  0.1725 -0.1610
    1MOL    C87   87   6.125   5.611   4.863  0.1322 -0.2096  0.0939
    1MOL    C88   88   6.228   5.521   4.845 -0.0915 -0.5277  0.0770
    1MOL    C89   89   6.227   5.407   4.920 -0.3747 -0.3278  1.0256
    1MOL    C90   90   6.282   5.294   5.204  0.0095 -0.7686  0.3738
    1MOL    H91   91   6.187   5.179   5.048  0.5236  0.5864 -0.7422
    1MOL    H92   92   5.942   5.471   5.106  0.1719  0.2812  0.4179
    1MOL    H93   93   6.124   5.689   4.788 -0.6458 -0.8443 -0.5722
    1MOL    H94   94   6.309   5.531   4.775  0.4425 -2.8452  0.3370
    1MOL    H95   95   6.311   5.340   4.910 -0.3744  0.0318 -1.6434
    1MOL    H96   96   6.367   5.335   5.149  0.1917 -2.6909 -0.8320
    1MOL    H97   97   6.259   5.381   5.266  0.8287  0.3512 -0.8556
    1MOL    C98   98   6.343   5.176   5.290 -0.2099  0.0351  0.1609
    1MOL    C99   99   6.347   5.052   5.208 -0.8062  0.1922  0.4025
    1MOL   C100  100   6.260   4.946   5.249 -0.4625 -0.8854 -0.2796
    1MOL   C101  101   6.238   4.831   5.168 -0.0076 -0.6100 -0.5369
    1MOL  Cl102  102   6.116   4.719   5.200  0.4308  0.1746 -0.2216
    1MOL   C103  103   6.319   4.817   5.059 -0.0098  0.7522 -0.1057
    1MOL   C104  104   6.415   4.910   5.018 -0.9664 -0.3799  0.0921
    1MOL   C105  105   6.430   5.033   5.097  0.0517 -0.2420  0.0020
    1MOL   C106  106   6.479   5.208   5.354  0.8863  0.1059  0.6204
    1MOL   H107  107   6.273   5.157   5.371 -0.1794  2.1928  0.7153
    1MOL   H108  108   6.195   4.959   5.334  2.0136 -1.7489  1.8196
    1MOL   H109  109   6.300   4.722   5.010  2.5363 -0.0819  0.4650
    1MOL   H110  110   6.478   4.882   4.934 -1.3316  0.5061 -0.4728
    1MOL   H111  111   6.504   5.109   5.075  0.8654 -1.6783 -2.4498
    1MOL   H112  112   6.509   5.112   5.395  1.7543  0.3932  0.6654
    1MOL   H113  113   6.545   5.232   5.271  0.5625 -1.0140  0.0300
    1MOL   C114  114   6.486   5.317   5.467 -0.3878  0.0330  0.4078
    1MOL   C115  115   6.393   5.287   5.583 -0.0533  0.0431  0.2762
    1MOL   C116  116   6.444   5.202   5.691  0.6892 -0.0510  0.1225
    1MOL   C117  117   6.368   5.175   5.804  0.5589  0.2356  0.8524
    1MOL  Cl118  118   6.426   5.072   5.935 -0.0362  0.1469  0.0424
    1MOL   C119  119   6.242   5.236   5.817  0.0015  0.7357 -0.3948
    1MOL   C120  120   6.201   5.324   5.718  0.7046  0.0833  0.9408
    1MOL   C121  121   6.270   5.352   5.600 -0.8888  0.1753  0.5333
    1MOL   C122  122   6.632   5.370   5.500 -0.0155 -0.0221  0.4674
    1MOL   H123  123   6.433   5.402   5.424  0.5239  0.7235  0.6400
    1MOL   H124  124   6.542   5.158   5.682  0.3381 -0.8044 -0.0030
    1MOL   H125  125   6.188   5.214   5.908  0.1350 -0.5645 -0.6139
    1MOL   H126  126   6.106   5.375   5.731  0.2763  0.2542 -2.2413
    1MOL   H127  127   6.232   5.422   5.528  0.0679 -0.1740 -0.3278
    1MOL   H128  128   6.633   5.428   5.592 -2.3929  1.8296 -0.5974
    1MOL   H129  129   6.695   5.283   5.516  0.9670  0.2216 -1.8449
    1MOL   C130  130   6.692   5.451   5.386  0.1473  0.0507 -0.0580
    1MOL   C131  131   6.615   5.584   5.363 -0.8321  0.2112  0.6262
    1MOL   C132  132   6.564   5.611   5.234 -1.3990  0.2652 -0.0173
    1MOL   C133  133   6.489   5.729   5.206  0.4464  0.3112  0.0033
    1MOL  Cl134  134   6.448   5.771   5.040  0.1202 -0.1728 -0.2730
    1MOL   C135  135   6.441   5.807   5.314 -0.9425 -0.6648 -0.0047
    1MOL   C136  136   6.498   5.790   5.440  0.1702  0.1593  0.6429
    1MOL   C137  137   6.581   5.676   5.470  0.2266 -0.1220 -0.0941
    1MOL   C138  138   6.844   5.482   5.408 -0.0810  0.1047  0.4552
    1MOL   H139  139   6.680   5.412   5.285 -0.3479 -2.2835  0.8744
    1MOL   H140  140   6.595   5.551   5.149  1.0239  1.3644  0.0261
    1MOL   H141  141   6.385   5.896   5.289  2.4522  1.1195 -1.6385
    1MOL   H142  142   6.466   5.849   5.524  0.4260 -1.4698  1.9139
    1MOL   H143  143   6.608   5.665   5.574  0.3891 -2.5485 -0.3795
    1MOL   H144  144   6.872   5.573   5.354  0.0673  0.4548  1.1128
    1MOL   H145  145   6.856   5.502   5.515  3.6143  2.5672 -0.3240
    1MOL   C146  146   6.944   5.365   5.368 -0.2452 -0.2500  0.1197
    1MOL   C147  147   6.930   5.333   5.222  0.4107  0.1887  0.3956
    1MOL   C148  148   6.880   5.207   5.185 -0.2265 -0.2554  0.1631
    1MOL   C149  149   6.846   5.182   5.050 -0.6045  0.5687 -0.1548
    1MOL  Cl150  150   6.771   5.031   5.008  0.1581  0.1265 -0.6006
    1MOL   C151  151   6.882   5.273   4.946  1.0296 -0.1643 -0.3872
    1MOL   C152  152   6.941   5.389   4.990 -0.1052  0.8046  0.1497
    1MOL   C153  153   6.968   5.426   5.118  0.0058 -0.0676  0.5036
    1MOL   C154  154   7.091   5.390   5.403  0.9145  0.1402  0.7530
    1MOL   H155  155   6.912   5.273   5.416  0.6481 -1.1652 -1.0070
    1MOL   H156  156   6.855   5.125   5.251  0.3323  0.6017  1.4424
    1MOL   H157  157   6.870   5.255   4.840  0.0197 -0.4872 -0.2261
    1MOL   H158  158   6.973   5.459   4.914 -0.5166  1.3009  0.4350
    1MOL   H159  159   7.006   5.525   5.139  1.5486 -0.4270 -0.5178
    1MOL   H160  160   7.115   5.482   5.349 -1.1620  0.0958 -0.3252
    1MOL   H161  161   7.096   5.398   5.511  0.0735 -0.8904  0.8751
    1MOL   C162  162   7.190   5.275   5.345  0.1175 -0.4915  0.2450
    1MOL   C163  163   7.335   5.306   5.362  0.6216  0.1492 -0.6113
    1MOL   C164  164   7.387   5.382   5.472 -0.0700  0.7327 -0.3530
    1MOL   C165  165   7.517   5.418   5.481 -0.4290  0.2060  0.4871
    1MOL  Cl166  166   7.570   5.515   5.610  0.0143 -0.0876 -0.2275
    1MOL   C167  167   7.608   5.368   5.383  0.0533 -0.2917 -0.1171
    1MOL   C168  168   7.563   5.292   5.275 -0.1898  0.0957 -0.4501
    1MOL   C169  169   7.427   5.259   5.263 -0.3811 -0.1067  0.6206
    1MOL   C170  170   7.158   5.128   5.396  0.1813 -0.3990 -0.6557
    1MOL   H171  171   7.173   5.269   5.238  2.7770 -0.7197 -0.1893
    1MOL   H172  172   7.331   5.407   5.560 -2.3964 -0.8537 -1.3296
    1MOL   H173  173   7.708   5.409   5.390 -0.3675  0.7024 -0.0270
    1MOL   H174  174   7.633   5.263   5.198  0.6388 -0.1484  0.3883
    1MOL   H175  175   7.393   5.210   5.173 -0.7945 -0.5695  1.0250
    1MOL   H176  176   7.059   5.102   5.360 -0.7110  1.4227  0.4452
    1MOL   H177  177   7.226   5.061   5.342  1.0515  0.2293 -0.3482
    1MOL   C178  178   7.175   5.098   5.547  0.6402 -0.4334 -0.5762
    1MOL   C179  179   7.047   5.108   5.633  0.2012  0.5107 -0.3946
    1MOL   C180  180   6.938   5.014   5.619  0.0510  0.0461 -0.2568
    1MOL   C181  181   6.820   5.034   5.692  0.0056 -0.3406  0.0741
    1MOL  Cl182  182   6.687   4.926   5.659 -0.0848 -0.0667 -0.3476
    1MOL   C183  183   6.807   5.140   5.780 -0.4283  0.4726 -0.2112
    1MOL   C184  184   6.917   5.228   5.799  0.0455 -0.3856  0.3556
    1MOL   C185  185   7.036   5.213   5.727 -0.4493 -0.0816  0.0317
    1MOL   C186  186   7.250   4.969   5.585  0.5471  0.6025  0.0766
    1MOL   H187  187   7.229   5.178   5.598 -0.6481 -0.4535  0.8397
    1MOL   H188  188   6.935   4.935   5.546 -0.0127 -0.1902  0.0015
    1MOL   H189  189   6.720   5.160   5.840  1.4689  1.0815  2.4315
    1MOL   H190  190   6.920   5.296   5.883 -0.2202 -1.9343  1.6497
    1MOL   H191  191   7.111   5.287   5.748  0.0712 -0.9194  1.1761
    1MOL   H192  192   7.203   4.899   5.654  0.8389  0.1878 -0.1444
    1MOL   H193  193   7.253   4.903   5.499  0.8856 -1.1621  1.4072
    1MOL   C194  194   7.394   4.998   5.631 -0.8685 -0.5632 -0.6188
    1MOL   C195  195   7.406   5.062   5.774  0.2013 -0.3650  0.0875
    1MOL   C196  196   7.454   5.193   5.787 -0.5773  0.1799 -0.2663
    1MOL   C197  197   7.447   5.261   5.905 -1.1712 -0.2325  0.4906
    1MOL  Cl198  198   7.506   5.425   5.940 -0.3205  0.0330 -0.1156
    1MOL   C199  199   7.371   5.200   6.006 -0.8538  0.0195  0.7767
    1MOL   C200  200   7.335   5.070   5.998  0.1906  0.1942 -0.1411
    1MOL   C201  201   7.345   5.000   5.881 -0.3592  0.3169  0.2534
    1MOL   C202  202   7.501   4.877   5.611  0.6176  0.1801  0.1430
    1MOL   H203  203   7.428   5.075   5.562  0.9368 -1.4486 -0.7663
    1MOL   H204  204   7.496   5.246   5.703 -1.4523 -0.5105 -1.1570
    1MOL   H205  205   7.344   5.258   6.093 -0.9226  0.3595  0.5324
    1MOL   H206  206   7.283   5.035   6.086  1.3594  0.8139  0.8033
    1MOL   H207  207   7.308   4.899   5.868 -2.7428  1.1770  0.2020
    1MOL   H208  208   7.478   4.801   5.685  0.5229  0.2002  0.1337
    1MOL   H209  209   7.493   4.834   5.512 -0.1941 -4.0091  1.9358
    1MOL   C210  210   7.649   4.913   5.636  0.2307  1.1040 -0.2292
    1MOL   C211  211   7.728   4.782   5.640  0.3249  0.1187  0.3754
    1MOL   C212  212   7.725   4.692   5.530 -0.2730 -0.9805  0.2710
    1MOL   C213  213   7.796   4.568   5.534 -0.0687  0.6184 -1.0803
    1MOL  Cl214  214   7.796   4.452   5.405  0.5969  0.1694 -0.1781
    1MOL   C215  215   7.867   4.537   5.657 -0.0342 -0.1708 -0.4733
    1MOL   C216  216   7.847   4.618   5.776 -0.4155  0.0942 -0.0330
    1MOL   C217  217   7.778   4.737   5.767  0.2059 -0.1148  0.1662
    1MOL   C218  218   7.706   5.021   5.541 -0.3006 -0.2722 -0.1197
    1MOL   H219  219   7.658   4.945   5.740  0.8581 -0.3143  0.1683
    1MOL   H220  220   7.667   4.714   5.441 -0.0936  2.1873  0.8708
    1MOL   H221  221   7.916   4.442   5.677  0.3913  0.4412  1.5587
    1MOL   H222  222   7.896   4.584   5.866  1.3565  0.8583 -0.6785
    1MOL   H223  223   7.750   4.790   5.857  2.7795  0.6099  0.5848
    1MOL   H224  224   7.706   4.980   5.440 -2.3154  1.1792 -0.7594
    1MOL   H225  225   7.641   5.107   5.556 -1.4216 -1.4450  2.0495
    1MOL   C226  226   7.851   5.079   5.569 -0.3775 -0.8772  0.2881
    1MOL   C227  227   7.932   5.085   5.438  0.2234  0.0169 -0.1801
    1MOL   C228  228   8.063   5.031   5.436  0.2917 -0.2849 -0.5988
    1MOL   C229  229   8.138   5.035   5.316  0.5230  0.3585 -0.7615
    1MOL  Cl230  230   8.300   4.981   5.308 -0.1153 -0.2325 -0.2840
    1MOL   C231  231   8.086   5.095   5.203 -0.4197 -0.1639  0.3354
    1MOL   C232  232   7.964   5.161   5.208  0.6640  0.3296  0.2483
    1MOL   C233  233   7.887   5.156   5.323 -0.0603  0.3670 -0.1160
    1MOL   C234  234   7.847   5.219   5.647 -0.7672  0.1716 -0.0742
    1MOL   H235  235   7.899   5.003   5.631 -1.6420 -1.1428  0.9661
    1MOL   H236  236   8.107   4.983   5.522  0.6422  0.3830 -0.3981
    1MOL   H237  237   8.146   5.100   5.113  1.3981  0.3025  1.5463
    1MOL   H238  238   7.931   5.224   5.127 -1.5605  0.0904  0.9143
    1MOL   H239  239   7.799   5.218   5.329 -0.4849 -0.1591 -0.9279
    1MOL   H240  240   7.947   5.261   5.637 -1.2738  2.0133  2.2097
    1MOL   H241  241   7.777   5.290   5.601 -1.9335 -1.2599 -0.5797
    1MOL   C242  242   7.825   5.226   5.798  0.3966  0.0997 -0.0135
    1MOL   C243  243   7.921   5.124   5.864  0.6738 -0.4112 -0.0392
    1MOL   C244  244   7.866   5.047   5.965 -0.7489  0.2417  0.1981
    1MOL   C245  245   7.933   4.932   6.021  0.6889 -0.0982 -0.3125
    1MOL  Cl246  246   7.850   4.840   6.142 -0.4990 -0.3649 -0.0927
    1MOL   C247  247   8.063   4.901   5.974  1.0110  0.1032 -0.3137
    1MOL   C248  248   8.127   4.985   5.879  0.3997 -0.2786 -0.2245
    1MOL   C249  249   8.053   5.092   5.821  0.1602 -0.4043  0.2356
    1MOL   C250  250   7.833   5.367   5.862  0.3113 -0.3197 -0.0349
    1MOL   H251  251   7.730   5.174   5.814  1.8489 -2.5058  0.4604
    1MOL   H252  252   7.769   5.073   6.004 -1.5685  0.1044 -1.6909
    1MOL   H253  253   8.117   4.820   6.021 -3.9882 -3.8345 -0.9170
    1MOL   H254  254   8.224   4.961   5.838  0.7931  0.7670  0.0831
    1MOL   H255  255   8.098   5.139   5.735  0.8720 -1.4674  0.0197
    1MOL   H256  256   7.759   5.423   5.805  0.2499 -0.5781 -0.2129
    1MOL   H257  257   7.789   5.359   5.962  0.4431 -1.7686 -0.0839
    1MOL   C258  258   7.960   5.448   5.861 -0.1753  0.2551 -0.0766
    1MOL   C259  259   8.012   5.477   5.720  0.0142 -0.2997 -0.6146
    1MOL   C260  260   7.934   5.548   5.628  0.2709  0.1461  0.5170
    1MOL   C261  261   7.971   5.553   5.493  0.0461  0.2607 -0.1608
    1MOL  Cl262  262   7.859   5.627   5.384  0.1033  0.0879 -0.4703
    1MOL   C263  263   8.084   5.482   5.447  0.8206 -0.1582  0.2716
    1MOL   C264  264   8.167   5.422   5.549 -0.8472 -0.6494 -0.1338
    1MOL   C265  265   8.138   5.417   5.683 -0.1591 -0.4647 -0.1248
    1MOL   C266  266   7.952   5.582   5.940 -0.1472 -0.5137  0.0112
    1MOL   H267  267   8.028   5.384   5.917 -1.5250  0.8365  2.2613
    1MOL   H268  268   7.837   5.588   5.653 -0.2947 -1.0165  0.2256
    1MOL   H269  269   8.110   5.469   5.343 -1.5085 -0.4135 -0.2998
    1MOL   H270  270   8.265   5.392   5.515 -1.6753 -1.4105 -1.9056
    1MOL   H271  271   8.203   5.371   5.756  1.3231 -0.9999 -1.7488
    1MOL   H272  272   7.968   5.671   5.879  0.4316 -0.1535  0.6839
    1MOL   H273  273   7.852   5.611   5.971  0.1659 -1.0117  1.5184
    1MOL   C274  274   8.046   5.585   6.065  0.7565 -0.2542 -0.0670
    1MOL   C275  275   8.129   5.712   6.055  0.2029  0.5053 -0.3112
    1MOL   C276  276   8.070   5.840   6.087 -0.0826  0.6817 -0.9008
    1MOL   C277  277   8.134   5.965   6.066  0.0538  0.2998  0.2171
    1MOL  Cl278  278   8.053   6.115   6.095 -0.5436  0.0808  0.0215
    1MOL   C279  279   8.263   5.963   6.010  0.4804  0.1467 -0.2494
    1MOL   C280  280   8.325   5.834   5.988 -0.3281  0.3890 -0.3459
    1MOL   C281  281   8.256   5.712   5.995  0.4159  0.4186  0.3801
    1MOL   C282  282   7.972   5.572   6.196 -0.2084 -0.1277  0.4745
    1MOL   H283  283   8.130   5.516   6.058 -1.8833 -3.4772 -1.1200
    1MOL   H284  284   7.968   5.842   6.122  1.3591  1.5085  3.6486
    1MOL   H285  285   8.325   6.051   5.999  0.0311  0.4734 -0.1992
    1MOL   H286  286   8.428   5.845   5.957 -0.7562  1.1618 -1.4911
    1MOL   H287  287   8.307   5.622   5.964 -2.5170  0.1317 -3.9468
    1MOL   H288  288   8.026   5.624   6.275  0.1208 -0.6932  0.6200
    1MOL   H289  289   7.870   5.611   6.202 -0.6830 -1.3137  0.2518
    1MOL   C290  290   7.957   5.419   6.239  0.2918 -0.4205  0.4146
    1MOL   C291  291   8.088   5.347   6.267  0.2782 -0.0336 -0.2721
    1MOL   C292  292   8.173   5.388   6.367 -0.4328  0.3376 -0.1772
    1MOL   C293  293   8.288   5.314   6.396  0.2813  0.8132 -0.7952
    1MOL  Cl294  294   8.408   5.370   6.512 -0.6286 -0.0470  0.2036
    1MOL   C295  295   8.319   5.196   6.318 -0.2800  0.2816  0.1712
    1MOL   C296  296   8.231   5.148   6.216  0.0689 -0.1139 -0.4244
    1MOL   C297  297   8.115   5.223   6.200  0.1174 -0.4661 -0.6793
    1MOL   C298  298   7.859   5.380   6.348 -0.8766  0.5390 -0.1998
    1MOL   H299  299   7.931   5.371   6.144 -0.6817  1.1973 -0.1466
    1MOL   H300  300   8.163   5.484   6.416 -0.8403  0.7256 -1.0145
    1MOL   H301  301   8.396   5.125   6.344  0.5629  0.6491 -1.2401
    1MOL   H302  302   8.252   5.058   6.160  0.2510  0.0450 -0.6116
    1MOL   H303  303   8.044   5.182   6.130 -0.7402 -2.8605  1.4726
    1MOL   H304  304   7.908   5.386   6.446  0.4444 -0.5446 -0.7682
    1MOL   H305  305   7.780   5.450   6.323 -0.9699  0.8747  0.9972
    1MOL   C306  306   7.793   5.243   6.330 -0.2935 -0.4241 -0.2622
    1MOL   C307  307   7.754   5.173   6.466  0.4528 -0.3998 -0.8933
    1MOL   C308  308   7.627   5.190   6.533  0.5038 -0.0338  0.9274
    1MOL   C309  309   7.599   5.119   6.650 -0.4453  0.2155  0.6371
    1MOL  Cl310  310   7.433   5.133   6.708 -0.2260  0.1293  0.2626
    1MOL   C311  311   7.694   5.031   6.704  0.2894 -0.6666  0.1664
    1MOL   C312  312   7.817   5.008   6.641 -0.5048  0.5652  0.3187
    1MOL   C313  313   7.846   5.082   6.526  0.1626  0.0256 -0.1880
    1MOL   C314  314   7.670   5.244   6.236  0.3250 -0.2527 -0.7944
    1MOL   H315  315   7.865   5.172   6.290 -0.4596 -0.4881 -0.4539
    1MOL   H316  316   7.551   5.249   6.485 -0.5128 -0.2791  2.2121
    1MOL   H317  317   7.677   5.000   6.805 -1.5221  2.2008  0.8115
    1MOL   H318  318   7.894   4.945   6.683 -1.5567 -1.2614 -0.4412
    1MOL   H319  319   7.949   5.070   6.495  0.0528 -1.2901 -0.1051
    1MOL   H320  320   7.586   5.308   6.262 -0.4108 -1.2982 -0.5911
    1MOL   H321  321   7.704   5.277   6.138  0.0433 -1.1792 -1.2057
    1MOL   H322  322   7.625   5.146   6.223 -0.9902  0.2448 -0.0601
    2MOL     C1  323   6.462   6.596   7.310 -0.2870 -0.8919 -0.3081
    2MOL     C2  324   6.449   6.662   7.177 -0.1959 -0.4208  0.6226
    2MOL     C3  325   6.409   6.585   7.070 -0.0168 -0.4201 -0.3402
    2MOL     C4  326   6.385   6.640   6.945  0.1593 -0.5842  0.9192
    2MOL    Cl5  327   6.316   6.544   6.815  0.2025 -0.0392  0.1357
    2MOL     C6  328   6.422   6.772   6.923 -0.1547 -0.0755 -0.1695
    2MOL     C7  329   6.482   6.852   7.022  0.1317  0.5036  0.4682
    2MOL     C8  330   6.488   6.800   7.154  0.2543  1.0894  0.4717
    2MOL     C9  331   6.331   6.521   7.365 -0.1080 -0.5487 -1.1348
    2MOL    H10  332   6.493   6.670   7.384 -0.2919 -0.7199 -0.4773
    2MOL    H11  333   6.397   6.482   7.098 -1.0222 -1.0138 -2.8368
    2MOL    H12  334   6.407   6.808   6.822  1.6738 -0.8342 -0.7355
    2MOL    H13  335   6.526   6.948   6.997  1.6498 -0.2896  0.0752
    2MOL    H14  336   6.517   6.865   7.235 -1.4576  3.5179 -0.8337
    2MOL    H15  337   6.248   6.591   7.350 -0.1229 -0.8296 -2.4222
    2MOL    H16  338   6.302   6.435   7.305 -0.6178  0.0128 -1.7101
    2MOL    H17  339   6.536   6.517   7.292 -0.7538 -1.0423 -1.6316
    2MOL    C18  340   6.351   6.479   7.518 -0.1220  0.2452  0.1123
    2MOL    C19  341   6.218   6.455   7.593 -0.1286 -0.1136 -0.1644
    2MOL    C20  342   6.128   6.354   7.551 -0.8128  0.2769 -0.1722
    2MOL    C21  343   6.017   6.320   7.630 -0.2473 -0.7734 -0.4088
    2MOL   Cl22  344   5.913   6.193   7.570  0.0176  0.6023  0.3182
    2MOL    C23  345   5.999   6.393   7.748  0.9072  0.3161  0.1724
    2MOL    C24  346   6.084   6.494   7.788 -0.0359  0.2253 -0.5788
    2MOL    C25  347   6.197   6.520   7.714 -0.0185 -0.0355 -0.0850
    2MOL    C26  348   6.469   6.390   7.547 -0.1303 -0.4872 -0.1782
    2MOL    H27  349   6.401   6.562   7.568  3.9070 -0.8758 -1.8556
    2MOL    H28  350   6.145   6.297   7.461 -1.5642 -0.4532  0.1419
    2MOL    H29  351   5.921   6.372   7.820  1.6082  1.0000  1.1552
    2MOL    H30  352   6.056   6.549   7.876  0.8034  0.5540 -0.5105
    2MOL    H31  353   6.267   6.592   7.754  1.0078 -0.6549 -0.7383
    2MOL    H32  354   6.559   6.431   7.502 -1.6115  1.6066 -1.3252
    2MOL    H33  355   6.480   6.388   7.656  1.2735  2.8855 -0.1841
    2MOL    C34  356   6.450   6.242   7.499 -0.0034  0.0400  0.5194
    2MOL    C35  357   6.456   6.227   7.348  0.0644  0.2994  0.4462
    2MOL    C36  358   6.341   6.182   7.271  0.0227 -0.6050  0.3665
    2MOL    C37  359   6.347   6.180   7.132 -0.4901 -1.1092 -0.0105
    2MOL   Cl38  360   6.195   6.137   7.051 -0.1463 -0.0109 -0.5635
    2MOL    C39  361   6.467   6.210   7.064  0.2007 -0.6527  0.1171
    2MOL    C40  362   6.580   6.246   7.137  0.2095 -0.4104  0.7404
    2MOL    C41  363   6.576   6.254   7.280  0.0110  0.0012  0.2571
    2MOL    C42  364   6.561   6.169   7.568 -0.2899  0.2051  0.1024
    2MOL    H43  365   6.348   6.211   7.522  0.4695 -1.1996  0.9619
    2MOL    H44  366   6.257   6.154   7.333  0.2588  1.7555  1.8317
    2MOL    H45  367   6.473   6.195   6.957  6.0502 -1.7364  0.4242
    2MOL    H46  368   6.664   6.278   7.077  0.3287 -0.5671  0.8226
    2MOL    H47  369   6.665   6.287   7.332 -0.2925  1.7000 -0.2529
    2MOL    H48  370   6.655   6.202   7.525 -1.1531  1.4189 -0.9064
    2MOL    H49  371   6.563   6.203   7.672 -0.4113  3.5919 -0.9383
    2MOL    C50  372   6.558   6.014   7.559 -0.0440 -0.2342  0.9788
    2MOL    C51  373   6.691   5.947   7.578 -0.2122  0.6706  0.2486
    2MOL    C52  374   6.751   5.868   7.480  0.0000 -0.2631 -0.0129
    2MOL    C53  375   6.875   5.807   7.499 -0.0945  0.2971 -0.0110
    2MOL   Cl54  376   6.936   5.689   7.385 -0.3442  0.2834  0.5214
    2MOL    C55  377   6.948   5.834   7.624 -0.1612  0.5216 -0.0906
    2MOL    C56  378   6.885   5.911   7.722 -0.4579  0.8325  0.0411
    2MOL    C57  379   6.754   5.965   7.702 -0.4760 -0.2595  0.1505
    2MOL    C58  380   6.445   5.956   7.652 -0.1025 -1.1981 -0.0403
    2MOL    H59  381   6.513   6.002   7.460  1.3368 -2.5153  0.6154
    2MOL    H60  382   6.706   5.859   7.382  0.3396  0.8787 -0.2855
    2MOL    H61  383   7.049   5.798   7.639 -0.5902 -0.3211  0.8028
    2MOL    H62  384   6.943   5.941   7.808 -0.6022  1.1986  0.0113
    2MOL    H63  385   6.726   6.028   7.785  0.3607  0.8229 -0.3815
    2MOL    H64  386   6.463   5.963   7.759  0.1499  0.3352 -0.1643
    2MOL    H65  387   6.372   6.037   7.653  0.2887 -0.8504  0.3076
    2MOL    C66  388   6.381   5.824   7.621  0.3018 -0.0586 -0.0965
    2MOL    C67  389   6.323   5.834   7.478  0.5401  0.7725  0.6146
    2MOL    C68  390   6.192   5.878   7.460  0.0165  0.3697  0.0959
    2MOL    C69  391   6.127   5.878   7.328 -0.5766 -0.5624 -0.9704
    2MOL   Cl70  392   5.969   5.928   7.327  0.1283  0.3174 -0.3058
    2MOL    C71  393   6.197   5.840   7.212  0.1895  0.0522  0.0742
    2MOL    C72  394   6.333   5.799   7.236  0.5647  0.2599  1.2142
    2MOL    C73  395   6.396   5.806   7.362  0.4798  0.2817  0.2654
    2MOL    C74  396   6.469   5.701   7.646 -0.3153 -0.4811  0.1652
    2MOL    H75  397   6.286   5.821   7.675  0.3001 -2.7930 -0.1760
    2MOL    H76  398   6.120   5.894   7.539 -0.2893 -0.3366 -0.0338
    2MOL    H77  399   6.137   5.836   7.123 -1.0834 -1.9011  0.9823
    2MOL    H78  400   6.386   5.755   7.153  0.7445 -0.6212  1.7892
    2MOL    H79  401   6.501   5.781   7.366  0.6836  1.2658  1.2396
    2MOL    H80  402   6.558   5.704   7.583 -0.7224  1.9713 -0.3442
    2MOL    H81  403   6.519   5.701   7.743  0.7126  0.8596 -0.3567
    2MOL    C82  404   6.410   5.560   7.622  0.1286  0.0428 -0.2923
    2MOL    C83  405   6.500   5.491   7.518 -0.6752 -0.2805  0.1214
    2MOL    C84  406   6.627   5.445   7.547 -0.3403 -0.4640 -0.1957
    2MOL    C85  407   6.708   5.386   7.449 -0.1227 -0.2857 -0.7436
    2MOL   Cl86  408   6.870   5.337   7.489 -0.0362 -0.2956 -0.4610
    2MOL    C87  409   6.663   5.364   7.321  0.1389 -0.3004 -0.2802
    2MOL    C88  410   6.529   5.411   7.287  0.2562 -0.3832 -0.3950
    2MOL    C89  411   6.454   5.470   7.388  0.0476  0.4211 -0.2729
    2MOL    C90  412   6.412   5.472   7.749 -0.0934  0.3442  0.1466
    2MOL    H91  413   6.307   5.567   7.585 -0.0413 -0.9309 -0.0066
    2MOL    H92  414   6.676   5.445   7.643  0.0719 -3.5905 -0.3736
    2MOL    H93  415   6.732   5.314   7.255  2.2702  2.0488  0.0752
    2MOL    H94  416   6.490   5.412   7.186  0.2244  1.5648 -0.3973
    2MOL    H95  417   6.356   5.508   7.362 -1.0338 -0.8007  1.8375
    2MOL    H96  418   6.405   5.366   7.725  1.7805  0.0634  0.7776
    2MOL    H97  419   6.506   5.480   7.805  0.1781  0.2455 -0.2947
    2MOL    C98  420   6.300   5.506   7.846  0.0030 -0.3330 -0.1081
    2MOL    C99  421   6.238   5.380   7.898 -0.5753  0.4878  0.2338
    2MOL   C100  422   6.323   5.279   7.951  1.1009 -0.1945  0.7596
    2MOL   C101  423   6.263   5.161   8.002 -0.5966 -0.1460 -0.4953
    2MOL  Cl102  424   6.360   5.038   8.070 -0.1961  0.3624  0.0103
    2MOL   C103  425   6.126   5.146   8.013  0.2595 -0.1299 -0.2255
    2MOL   C104  426   6.039   5.249   7.961 -0.0409  0.3944  0.2786
    2MOL   C105  427   6.098   5.360   7.900 -0.0456 -0.0053 -0.2668
    2MOL   C106  428   6.344   5.605   7.963  0.3793 -0.4006 -0.8661
    2MOL   H107  429   6.226   5.561   7.787  1.7170  2.1465 -0.0429
    2MOL   H108  430   6.431   5.285   7.947  1.0509  0.0623 -0.2488
    2MOL   H109  431   6.086   5.051   8.048 -3.4666  0.6256 -2.0972
    2MOL   H110  432   5.934   5.223   7.953 -0.4262  1.2354  2.3979
    2MOL   H111  433   6.041   5.436   7.848 -0.5557 -0.7884 -0.8663
    2MOL   H112  434   6.391   5.544   8.040 -0.0928 -0.7893 -0.8809
    2MOL   H113  435   6.424   5.672   7.933  0.1144  1.0168  1.4191
    2MOL   C114  436   6.222   5.676   8.027  0.2614 -0.5846  0.0429
    2MOL   C115  437   6.253   5.709   8.174  0.1783  0.2837  0.3736
    2MOL   C116  438   6.149   5.690   8.267 -0.1768  0.2773 -0.1416
    2MOL   C117  439   6.168   5.723   8.398 -0.3957  0.7530  0.4838
    2MOL  Cl118  440   6.043   5.683   0.069  0.1254  0.3616  0.1892
    2MOL   C119  441   6.287   5.775   0.004 -0.6326 -0.1487 -0.3842
    2MOL   C120  442   6.392   5.808   8.343 -0.4502  0.3792 -0.3541
    2MOL   C121  443   6.367   5.778   8.211 -0.3278  0.3110 -0.4335
    2MOL   C122  444   6.179   5.801   7.937 -0.3042  0.3013 -0.1921
    2MOL   H123  445   6.144   5.601   8.017  0.9852 -1.0968 -1.9827
    2MOL   H124  446   6.060   5.638   8.236 -1.6286  1.2716  2.1762
    2MOL   H125  447   6.301   5.801   0.108  0.0843 -3.0017  0.2945
    2MOL   H126  448   6.484   5.856   8.374  0.4846 -1.7372  0.2317
    2MOL   H127  449   6.432   5.803   8.128 -0.4194  0.6452 -0.4037
    2MOL   H128  450   6.272   5.847   7.903 -0.3595 -0.3877 -1.2917
    2MOL   H129  451   6.144   5.742   7.852  1.9475 -0.5486 -0.5496
    2MOL   C130  452   6.078   5.912   8.001 -0.1394  0.1071  0.0168
    2MOL   C131  453   6.163   6.030   8.049 -0.0788 -0.4764 -0.6242
    2MOL   C132  454   6.238   6.113   7.957  0.3250 -0.7268 -0.8684
    2MOL   C133  455   6.324   6.211   8.009  0.4117  0.2940 -0.6245
    2MOL  Cl134  456   6.441   6.277   7.903  0.2178  0.1978 -0.1144
    2MOL   C135  457   6.320   6.243   8.147 -0.5240 -0.1641  0.2623
    2MOL   C136  458   6.241   6.169   8.236 -0.8562  0.3139  0.1225
    2MOL   C137  459   6.174   6.054   8.186 -0.3509 -0.1324 -0.9481
    2MOL   C138  460   5.978   5.960   7.894  0.0119  0.1472  0.2637
    2MOL   H139  461   6.026   5.869   8.087  0.9284 -2.1650 -0.4450
    2MOL   H140  462   6.231   6.089   7.852 -0.1256 -1.9530 -0.5638
    2MOL   H141  463   6.387   6.318   8.188  0.2151  0.0091 -1.2330
    2MOL   H142  464   6.231   6.206   8.337 -0.2189 -1.6357  0.9214
    2MOL   H143  465   6.123   5.993   8.259  2.0727  1.2382  1.9797
    2MOL   H144  466   5.928   6.051   7.927  0.9626  0.5145  0.7233
    2MOL   H145  467   6.025   5.991   7.801  0.7881 -2.0121 -0.1078
    2MOL   C146  468   5.871   5.854   7.866 -0.0654 -0.4138 -0.2521
    2MOL   C147  469   5.784   5.830   7.986 -0.1818 -0.3813 -0.5104
    2MOL   C148  470   5.793   5.707   8.057 -0.0104 -0.5224 -0.4587
    2MOL   C149  471   5.720   5.692   8.177  1.3572 -0.4478 -0.3754
    2MOL  Cl150  472   5.717   5.544   8.260  0.1666 -0.1326 -0.1284
    2MOL   C151  473   5.630   5.796   8.220 -0.2785 -0.3192 -0.1194
    2MOL   C152  474   5.627   5.915   8.144  0.7756  0.7078 -0.4812
    2MOL   C153  475   5.701   5.928   8.031  0.3509 -0.5031 -0.3793
    2MOL   C154  476   5.794   5.902   7.742  0.0546  0.0518  0.0502
    2MOL   H155  477   5.916   5.760   7.835  1.3566  0.9766 -2.5745
    2MOL   H156  478   5.841   5.620   8.015  1.5826 -0.2071  0.6947
    2MOL   H157  479   5.580   5.793   8.316 -0.4829 -0.6318 -0.2352
    2MOL   H158  480   5.563   5.993   8.184  0.3577 -0.5568  1.3925
    2MOL   H159  481   5.696   6.016   7.968  2.4722 -1.0734 -1.3751
    2MOL   H160  482   5.749   6.001   7.741  0.5381  0.3046  1.5540
    2MOL   H161  483   5.865   5.928   7.663  0.3691 -1.5062 -0.1999
    2MOL   C162  484   5.702   5.803   7.671  0.3117 -0.7725  0.4612
    2MOL   C163  485   5.773   5.662   7.654  0.2944 -0.0129 -0.3299
    2MOL   C164  486   5.869   5.634   7.554 -0.1804 -0.5727  0.1050
    2MOL   C165  487   5.932   5.503   7.545 -0.6479 -0.4311  0.3178
    2MOL  Cl166  488   6.044   5.459   7.425 -0.1214  0.1705 -0.2624
    2MOL   C167  489   5.890   5.404   7.635 -0.3413  0.3709 -0.1312
    2MOL   C168  490   5.798   5.430   7.736 -0.0717 -0.7877  0.3182
    2MOL   C169  491   5.746   5.561   7.751  0.9530  0.2288 -0.4741
    2MOL   C170  492   5.553   5.799   7.718  0.1207  0.1894  0.2749
    2MOL   H171  493   5.693   5.843   7.571  0.7671  1.8938  1.4524
    2MOL   H172  494   5.898   5.719   7.494 -0.9484 -0.0611  0.4628
    2MOL   H173  495   5.925   5.303   7.618 -2.9476 -0.8310  1.3789
    2MOL   H174  496   5.753   5.352   7.795  2.5565 -2.6716 -0.0874
    2MOL   H175  497   5.681   5.574   7.836  3.4573  0.2596  1.4706
    2MOL   H176  498   5.528   5.700   7.757 -0.5054  0.7595  1.3289
    2MOL   H177  499   5.552   5.860   7.808 -1.0867 -0.2616  0.5839
    2MOL   C178  500   5.454   5.848   7.622 -0.6818 -0.1487 -0.1545
    2MOL   C179  501   5.459   5.770   7.492 -0.2313  0.2704 -0.2428
    2MOL   C180  502   5.510   5.834   7.376  0.4900  1.1541  0.1618
    2MOL   C181  503   5.521   5.763   7.256  0.6060  0.5155  0.2189
    2MOL  Cl182  504   5.567   5.840   7.114 -0.2999  0.5351  0.1506
    2MOL   C183  505   5.472   5.636   7.251  0.4451  0.2160  0.1179
    2MOL   C184  506   5.436   5.562   7.365  0.0950  0.7457  0.3093
    2MOL   C185  507   5.433   5.632   7.485  0.2014  0.5774 -0.0367
    2MOL   C186  508   5.313   5.848   7.682  0.0150  0.0767 -0.2277
    2MOL   H187  509   5.478   5.949   7.590 -1.6291 -0.8227 -3.0635
    2MOL   H188  510   5.544   5.937   7.379  3.0807  0.3430  0.0480
    2MOL   H189  511   5.473   5.587   7.155  1.0615  2.3981 -1.0262
    2MOL   H190  512   5.418   5.456   7.352  1.7137  0.4004  0.7040
    2MOL   H191  513   5.409   5.571   7.571 -0.6685  0.6753 -0.2062
    2MOL   H192  514   5.242   5.862   7.600 -1.7805  4.1601  1.8543
    2MOL   H193  515   5.284   5.750   7.720  1.9821  0.2266  1.7000
    2MOL   C194  516   5.280   5.948   7.796  0.3804 -0.9514 -0.3993
    2MOL   C195  517   5.320   6.093   7.770 -0.6741  0.3714 -0.3517
    2MOL   C196  518   5.434   6.151   7.823 -0.9231 -0.0934  0.1150
    2MOL   C197  519   5.464   6.287   7.802 -0.2144 -0.5249 -0.0458
    2MOL  Cl198  520   5.617   6.355   7.864 -0.3593  0.0335  0.4782
    2MOL   C199  521   5.384   6.369   7.721 -0.0555  0.5562 -0.5246
    2MOL   C200  522   5.279   6.303   7.652  0.7023  0.0147 -0.0328
    2MOL   C201  523   5.245   6.168   7.680  0.0413  0.5285  1.2872
    2MOL   C202  524   5.134   5.949   7.861  0.1154  0.5927  0.4185
    2MOL   H203  525   5.338   5.915   7.882 -0.4745 -2.1450 -0.2734
    2MOL   H204  526   5.502   6.091   7.882 -0.5144 -0.2221 -0.4929
    2MOL   H205  527   5.410   6.473   7.702 -1.3134  0.9213 -0.2482
    2MOL   H206  528   5.212   6.359   7.587  0.8045  2.6520  2.0665
    2MOL   H207  529   5.159   6.123   7.632  1.6115 -0.7735 -0.3793
    2MOL   H208  530   5.135   6.025   7.939  2.1998  0.6114  0.3970
    2MOL   H209  531   5.069   5.977   7.778 -1.5330 -1.8245  0.8408
    2MOL   C210  532   5.094   5.824   7.933  0.1711  0.4569 -0.7399
    2MOL   C211  533   5.195   5.764   8.030  0.5214 -0.2234 -0.3787
    2MOL   C212  534   5.266   5.649   7.991 -0.2407  0.3119 -0.6404
    2MOL   C213  535   5.357   5.585   8.078  0.0581  0.9059  0.6201
    2MOL  Cl214  536   5.440   5.438   8.034 -0.0605 -0.4165  0.0718
    2MOL   C215  537   5.369   5.636   8.213 -0.0886  0.0776 -0.1796
    2MOL   C216  538   5.296   5.757   8.250  0.1849  0.3939  0.6834
    2MOL   C217  539   5.208   5.816   8.156 -0.2489 -0.2555 -0.6324
    2MOL   C218  540   4.953   5.849   7.991  0.4472 -0.3937  0.0812
    2MOL   H219  541   5.080   5.737   7.869  2.5900 -0.3876 -0.1920
    2MOL   H220  542   5.252   5.601   7.896  1.9137 -0.4476 -0.6064
    2MOL   H221  543   5.433   5.585   8.284 -0.5784  1.3106  1.1721
    2MOL   H222  544   5.301   5.799   8.349  2.1226  0.2075  0.6915
    2MOL   H223  545   5.172   5.912   8.191  0.7953 -0.1530  0.1912
    2MOL   H224  546   4.968   5.940   8.050  1.4431 -0.0157 -0.7434
    2MOL   H225  547   4.883   5.881   7.914  0.2987  2.0317  1.1746
    2MOL   C226  548   4.894   5.734   8.074  0.0077 -1.0970  0.2912
    2MOL   C227  549   4.859   5.787   8.212  0.3719  0.7977  0.2107
    2MOL   C228  550   4.740   5.866   8.229 -1.0784  0.2386  0.3733
    2MOL   C229  551   4.710   5.916   8.360 -0.0299 -0.4849 -0.3464
    2MOL  Cl230  552   4.562   6.019   8.377 -0.4725  0.0485 -0.2662
    2MOL   C231  553   4.798   5.882   0.035  0.3238  0.0013  0.9105
    2MOL   C232  554   4.905   5.792   0.018 -0.7656  0.4372  0.1934
    2MOL   C233  555   4.940   5.745   8.325 -0.4690 -0.2776  0.0464
    2MOL   C234  556   4.772   5.665   8.011  0.0374  0.2861  0.2019
    2MOL   H235  557   4.972   5.660   8.091  3.6468  2.4834 -0.3131
    2MOL   H236  558   4.678   5.885   8.143  0.0184  0.7791 -0.3122
    2MOL   H237  559   4.780   5.926   0.131  1.1729  2.6747 -0.1120
    2MOL   H238  560   4.965   5.768   0.104  0.3414  2.8644  0.1274
    2MOL   H239  561   5.033   5.692   8.310  0.3394  1.1791 -0.2004
    2MOL   H240  562   4.691   5.636   8.078 -0.6545  1.1216 -0.2482
    2MOL   H241  563   4.735   5.734   7.935 -0.3321  2.6411  2.4437
    2MOL   C242  564   4.816   5.535   7.937  0.8101  0.1180 -1.0946
    2MOL   C243  565   4.877   5.429   8.028 -0.0897  0.0917  0.3242
    2MOL   C244  566   4.800   5.358   8.127 -0.3755 -0.2164  0.8738
    2MOL   C245  567   4.872   5.275   8.219  0.6272 -0.5777 -0.3458
    2MOL  Cl246  568   4.782   5.182   8.333 -0.2724 -0.3329  0.0821
    2MOL   C247  569   5.009   5.249   8.209 -0.5462  0.3067 -0.1179
    2MOL   C248  570   5.082   5.305   8.099  0.1084 -0.2042  0.1071
    2MOL   C249  571   5.017   5.401   8.019 -0.3160  0.6853 -0.0136
    2MOL   C250  572   4.692   5.481   7.855  0.4721  0.2168  0.1587
    2MOL   H251  573   4.900   5.561   7.872  0.6985  1.5111 -0.6939
    2MOL   H252  574   4.696   5.377   8.151  0.0423 -0.7267  3.2174
    2MOL   H253  575   5.058   5.187   8.283  0.5031  0.3103 -0.7897
    2MOL   H254  576   5.187   5.278   8.102 -0.0534 -0.8176  0.5321
    2MOL   H255  577   5.072   5.465   7.952 -0.6146  0.1053 -0.8254
    2MOL   H256  578   4.616   5.451   7.928  0.0359 -1.4915 -0.9388
    2MOL   H257  579   4.641   5.565   7.807 -0.5403  0.2788  1.3115
    2MOL   C258  580   4.708   5.372   7.749 -0.6993  1.1182  0.4053
    2MOL   C259  581   4.687   5.240   7.828  0.4542  0.5066  0.1051
    2MOL   C260  582   4.791   5.145   7.834 -0.3414 -0.9260  0.1087
    2MOL   C261  583   4.781   5.043   7.933 -0.2750  0.0075 -1.1932
    2MOL  Cl262  584   4.911   4.940   7.964 -0.1839 -0.5821  0.0456
    2MOL   C263  585   4.658   5.018   8.000  0.2741 -0.2265  0.1640
    2MOL   C264  586   4.545   5.106   7.975 -0.5562  0.2184  0.1694
    2MOL   C265  587   4.557   5.215   7.890 -0.2271 -0.1393  0.7785
    2MOL   C266  588   4.604   5.382   7.628 -0.2022  0.9120  0.4295
    2MOL   H267  589   4.809   5.382   7.709 -1.3727  1.4040 -1.2516
    2MOL   H268  590   4.887   5.168   7.789 -1.2705  0.2262 -1.2952
    2MOL   H269  591   4.642   4.932   8.063 -1.4889 -1.0546 -1.3384
    2MOL   H270  592   4.451   5.081   8.023  0.1074 -0.4163  1.1547
    2MOL   H271  593   4.464   5.267   7.875  0.0462  0.4579  1.1580
    2MOL   H272  594   4.623   5.300   7.558  0.3848  2.0073 -0.7275
    2MOL   H273  595   4.505   5.377   7.673 -1.9131  1.3366 -3.1186
    2MOL   C274  596   4.627   5.495   7.524 -0.4626 -0.3875  0.6531
    2MOL   C275  597   4.772   5.538   7.515 -0.5193  0.0734 -0.0901
    2MOL   C276  598   4.878   5.450   7.476 -0.0724  0.0677  0.7595
    2MOL   C277  599   5.013   5.481   7.477  0.5655 -0.0941 -0.3168
    2MOL  Cl278  600   5.132   5.367   7.422  0.4803  0.0422 -0.0588
    2MOL   C279  601   5.048   5.608   7.515 -0.5203 -0.3002 -0.0243
    2MOL   C280  602   4.952   5.703   7.549 -0.0238 -0.0721  0.1851
    2MOL   C281  603   4.816   5.666   7.562 -0.1108  0.1108 -0.8519
    2MOL   C282  604   4.574   5.466   7.384 -0.2624  0.1152 -0.2030
    2MOL   H283  605   4.571   5.575   7.572  0.1721 -0.0200  0.7832
    2MOL   H284  606   4.856   5.348   7.448 -2.3041  0.0264  2.4846
    2MOL   H285  607   5.149   5.648   7.512 -0.4644 -0.4730 -0.4656
    2MOL   H286  608   4.968   5.807   7.574 -0.9432 -0.1625  1.2042
    2MOL   H287  609   4.750   5.740   7.604 -2.6681 -1.7597 -1.4094
    2MOL   H288  610   4.633   5.393   7.329 -0.2216  0.4015 -0.5384
    2MOL   H289  611   4.481   5.409   7.390 -0.3563  0.3669  0.8938
    2MOL   C290  612   4.553   5.590   7.296 -0.8599  0.0391 -0.2240
    2MOL   C291  613   4.581   5.564   7.145  0.2389 -0.2519  0.3306
    2MOL   C292  614   4.550   5.443   7.088  0.3443 -0.1498  0.6160
    2MOL   C293  615   4.563   5.422   6.952  0.2545  0.2191  0.1025
    2MOL  Cl294  616   4.523   5.279   6.883  0.2119  0.3200 -0.2640
    2MOL   C295  617   4.601   5.528   6.862  0.1739  0.5333 -0.2962
    2MOL   C296  618   4.634   5.655   6.921 -0.1561  0.3578  0.0034
    2MOL   C297  619   4.626   5.669   7.061  0.1085  0.4232 -0.1338
    2MOL   C298  620   4.413   5.643   7.303  0.4306 -0.3652  0.9561
    2MOL   H299  621   4.625   5.668   7.320  1.6013 -2.0895 -0.5462
    2MOL   H300  622   4.509   5.359   7.142 -1.0476 -1.9138 -3.0384
    2MOL   H301  623   4.610   5.507   6.757 -0.0502 -0.4898 -0.1150
    2MOL   H302  624   4.658   5.738   6.857 -0.4713 -0.0549 -0.6604
    2MOL   H303  625   4.655   5.766   7.099  2.2397  0.2419 -1.2099
    2MOL   H304  626   4.402   5.717   7.224 -0.2087 -1.1618  0.2944
    2MOL   H305  627   4.340   5.565   7.280  0.2330  0.6053 -1.8927
    2MOL   C306  628   4.355   5.696   7.436 -0.5889  0.2289 -0.1876
    2MOL   C307  629   4.433   5.817   7.496 -0.7841 -0.1011 -0.0214
    2MOL   C308  630   4.447   5.826   7.636  0.1904 -0.1705  0.5714
    2MOL   C309  631   4.511   5.935   7.690  0.4088 -0.5493 -0.2415
    2MOL  Cl310  632   4.534   5.932   7.866 -0.3557  0.2098 -0.3564
    2MOL   C311  633   4.588   6.023   7.616  0.3716  0.3628  0.2067
    2MOL   C312  634   4.587   6.007   7.475  0.4435  0.5008  0.6638
    2MOL   C313  635   4.505   5.909   7.417 -0.3313  0.3760 -0.3252
    2MOL   C314  636   4.208   5.730   7.408  0.9636  0.5616 -0.2216
    2MOL   H315  637   4.350   5.619   7.513 -1.4057 -0.1122 -0.5707
    2MOL   H316  638   4.402   5.750   7.697  1.0342 -0.5556  0.7178
    2MOL   H317  639   4.640   6.107   7.658 -0.1072  0.7008  0.1289
    2MOL   H318  640   4.620   6.078   7.400  0.7363 -0.4255 -0.0872
    2MOL   H319  641   4.495   5.912   7.309 -1.0698  2.0204 -0.2321
    2MOL   H320  642   4.142   5.643   7.411  1.0685  0.3957 -2.2116
    2MOL   H321  643   4.174   5.787   7.495  0.4081  1.1253 -0.7929
    2MOL   H322  644   4.195   5.782   7.313 -2.2419 -1.1052 -0.7462
    3MOL     C1  645   8.403   6.670   7.354 -0.2110 -0.6643 -0.3363
    3MOL     C2  646   8.274   6.740   7.336 -0.0914 -0.0490 -0.0080
    3MOL     C3  647   8.160   6.689   7.407  0.1347 -0.5882  0.3737
    3MOL     C4  648   8.040   6.747   7.379 -0.0039 -0.3995  0.4039
    3MOL    Cl5  649   7.902   6.700   7.460  0.2391  0.0452 -0.0520
    3MOL     C6  650   8.033   6.864   7.294  0.3212  0.8540  0.1021
    3MOL     C7  651   8.143   6.914   7.230  0.2609 -0.0171  0.4679
    3MOL     C8  652   8.265   6.851   7.244 -0.1799  0.1787 -0.4558
    3MOL     C9  653   0.001   6.572   7.236  0.4872 -0.5338  0.8586
    3MOL    H10  654   8.396   6.616   7.449  3.6259  0.1013  0.4928
    3MOL    H11  655   8.176   6.616   7.485 -0.2750  2.0219  2.9955
    3MOL    H12  656   7.933   6.901   7.277  0.2495  0.6302  0.0486
    3MOL    H13  657   8.149   7.001   7.166  0.6831 -0.1129  0.3830
    3MOL    H14  658   8.350   6.896   7.195  0.2260  0.8780  0.8747
    3MOL    H15  659   8.348   6.512   7.213  0.3274 -0.5029  1.3756
    3MOL    H16  660   0.028   6.627   7.146  1.1179 -0.2780  1.1943
    3MOL    H17  661   0.040   6.751   7.362 -0.1468 -0.6592 -0.9516
    3MOL    C18  662   0.115   6.476   7.269  0.0638 -0.6056  0.8215
    3MOL    C19  663   0.083   6.390   7.398  0.0733 -0.2229 -0.1463
    3MOL    C20  664   0.165   6.398   7.505  0.2950  0.5765 -0.6544
    3MOL    C21  665   0.144   6.313   7.618  0.2902 -0.0467  0.6196
    3MOL   Cl22  666   0.259   6.316   7.751 -0.2452  0.2366 -0.2555
    3MOL    C23  667   0.036   6.224   7.620  0.3870  0.0517 -0.1183
    3MOL    C24  668   8.382   6.218   7.509  0.6409 -0.0993 -0.2683
    3MOL    C25  669   8.404   6.306   7.400  0.1067 -0.0341  0.6973
    3MOL    C26  670   0.158   6.381   7.149  0.4707 -0.1501 -0.0374
    3MOL    H27  671   0.191   6.550   7.293  0.2351 -1.2916  2.4300
    3MOL    H28  672   0.251   6.463   7.505 -0.7821  2.1310 -4.6122
    3MOL    H29  673   0.008   6.176   7.712 -0.3874  1.2978  0.3192
    3MOL    H30  674   8.287   6.167   7.511 -0.8873  2.6517 -0.3816
    3MOL    H31  675   8.341   6.301   7.312 -1.6281 -4.1835  2.0634
    3MOL    H32  676   0.088   6.297   7.148  1.4838 -0.9959  0.1355
    3MOL    H33  677   0.143   6.436   7.056  0.2738 -1.5601 -0.8444
    3MOL    C34  678   0.302   6.317   7.154  0.9496  0.1005  0.3623
    3MOL    C35  679   0.410   6.415   7.134  0.2380  0.0680  0.3905
    3MOL    C36  680   0.490   6.427   7.020  0.1052 -0.0675 -0.3853
    3MOL    C37  681   0.582   6.531   7.003  0.9542  0.2734  0.6063
    3MOL   Cl38  682   0.667   6.558   6.842  0.3508  0.6038 -0.4963
    3MOL    C39  683   0.605   6.619   7.114 -0.0261 -0.7230  0.1021
    3MOL    C40  684   0.548   6.596   7.235  0.2028 -0.1634 -0.8659
    3MOL    C41  685   0.445   6.495   7.246  0.3097 -0.3916 -0.0655
    3MOL    C42  686   0.339   6.220   7.268 -1.0569 -0.3059  0.2332
    3MOL    H43  687   0.298   6.252   7.067 -1.5759  2.0699 -1.0445
    3MOL    H44  688   0.475   6.363   6.935  1.3625 -2.3264  1.0496
    3MOL    H45  689   0.678   6.698   7.112 -1.2653  0.4478 -0.0405
    3MOL    H46  690   0.588   6.656   7.315  0.0044 -0.7188 -0.3393
    3MOL    H47  691   0.398   6.485   7.343  1.7428  0.4238  0.7265
    3MOL    H48  692   0.446   6.199   7.258 -1.3963 -1.1005 -1.9289
    3MOL    H49  693   0.332   6.285   7.356  2.1423  1.5521 -0.7994
    3MOL    C50  694   0.259   6.095   7.297  0.2904  0.4438 -0.4510
    3MOL    C51  695   0.252   6.001   7.176 -0.4686 -0.6234 -0.3507
    3MOL    C52  696   0.364   5.943   7.113 -0.3393 -0.3151 -0.0240
    3MOL    C53  697   0.351   5.866   6.995 -0.3463 -0.3889 -0.0362
    3MOL   Cl54  698   0.486   5.791   6.924  0.1189 -0.3371 -0.2411
    3MOL    C55  699   0.223   5.835   6.944  0.9025  0.0912  0.6517
    3MOL    C56  700   0.112   5.888   7.015 -0.1914  0.2543  0.0885
    3MOL    C57  701   0.120   5.973   7.128 -0.1640  0.8807  0.4250
    3MOL    C58  702   0.287   6.021   7.423  0.1602 -0.2272 -0.3908
    3MOL    H59  703   0.159   6.137   7.303 -0.7754 -1.8267 -1.7064
    3MOL    H60  704   0.462   5.964   7.154 -0.6730  1.3746 -0.0473
    3MOL    H61  705   0.212   5.773   6.855  3.1931 -1.0423  1.1225
    3MOL    H62  706   0.012   5.866   6.981 -0.3699  2.0866 -0.6441
    3MOL    H63  707   0.040   6.017   7.184 -1.3357  0.7927 -1.1583
    3MOL    H64  708   0.256   6.092   7.500 -0.2692  0.5899 -1.3087
    3MOL    H65  709   0.214   5.940   7.425 -0.0946  0.0155  0.2888
    3MOL    C66  710   0.435   5.971   7.450  0.2428 -0.4999 -0.2250
    3MOL    C67  711   0.537   6.071   7.502  0.4782 -0.1138 -0.3835
    3MOL    C68  712   0.511   6.121   7.630 -0.4182 -0.0436 -0.3951
    3MOL    C69  713   0.608   6.198   7.695  0.4054 -0.7696  0.2329
    3MOL   Cl70  714   0.582   6.249   7.862  0.0861 -0.0055 -0.0560
    3MOL    C71  715   0.729   6.224   7.627 -0.2622 -0.4531  0.4262
    3MOL    C72  716   0.750   6.184   7.495 -0.5145 -0.0288 -0.2558
    3MOL    C73  717   0.655   6.102   7.431  0.0445  0.9664 -0.1178
    3MOL    C74  718   0.427   5.840   7.536 -0.2715 -0.3201  0.4726
    3MOL    H75  719   0.482   5.931   7.360 -1.4642 -2.6903 -0.1872
    3MOL    H76  720   0.419   6.101   7.683  1.0092 -0.8107  1.8484
    3MOL    H77  721   0.800   6.285   7.680  0.7582 -2.1887  1.0964
    3MOL    H78  722   0.840   6.217   7.445 -0.5054 -0.9913 -0.9067
    3MOL    H79  723   0.677   6.058   7.335  0.3389  1.0531 -0.0890
    3MOL    H80  724   0.372   5.875   7.624 -1.1989 -1.0744  0.2027
    3MOL    H81  725   0.363   5.765   7.490 -0.3193 -1.8244  2.8991
    3MOL    C82  726   0.566   5.778   7.567 -0.1806  0.3735 -0.4544
    3MOL    C83  727   0.631   5.822   7.695  0.3982 -0.4840 -0.0168
    3MOL    C84  728   0.551   5.841   7.812 -0.3563  0.3836 -0.2177
    3MOL    C85  729   0.614   5.893   7.932  0.1592  0.1661 -0.4071
    3MOL   Cl86  730   0.513   5.927   8.069 -0.1800  0.0206  0.3153
    3MOL    C87  731   0.750   5.923   7.922 -1.1346 -0.4346  0.3872
    3MOL    C88  732   0.829   5.889   7.814  0.2811  0.4891  0.2635
    3MOL    C89  733   0.771   5.842   7.691  0.1633  0.1612 -0.0640
    3MOL    C90  734   0.559   5.619   7.556 -0.1974 -0.1653 -0.0415
    3MOL    H91  735   0.636   5.814   7.491  1.8646  0.1586  1.2848
    3MOL    H92  736   0.447   5.818   7.830 -0.0878  0.3285  1.2713
    3MOL    H93  737   0.798   5.961   8.011 -0.3389 -2.9491  1.0562
    3MOL    H94  738   0.933   5.916   7.816 -0.1916  2.5482 -1.2574
    3MOL    H95  739   0.827   5.829   7.600  1.7463 -0.9170  1.0404
    3MOL    H96  740   0.647   5.575   7.603 -0.2922 -0.2290  0.0746
    3MOL    H97  741   0.482   5.590   7.626  1.1004 -0.9637  1.0757
    3MOL    C98  742   0.549   5.552   7.419 -0.5363  0.5474  0.0221
    3MOL    C99  743   0.662   5.591   7.321  1.0326  0.3978 -0.1077
    3MOL   C100  744   0.794   5.532   7.328  0.9551 -0.5925 -0.1072
    3MOL   C101  745   0.890   5.585   7.248 -0.5287 -0.0261  0.1405
    3MOL  Cl102  746   1.053   5.524   7.271  0.1236 -0.3483  0.4026
    3MOL   C103  747   0.853   5.665   7.135 -0.5564  0.0437 -0.1730
    3MOL   C104  748   0.730   5.723   7.132 -0.2782 -0.9799  0.2353
    3MOL   C105  749   0.638   5.695   7.231  0.3054 -0.7171  0.1700
    3MOL   C106  750   0.534   5.397   7.426  0.7633  0.2867  0.3023
    3MOL   H107  751   0.453   5.594   7.390  0.2966  1.0713 -2.1217
    3MOL   H108  752   0.815   5.458   7.404  0.2051  0.0226  0.7178
    3MOL   H109  753   0.931   5.691   7.065  0.6939  3.0075  2.2254
    3MOL   H110  754   0.705   5.801   7.062  0.0307  0.1833  1.3894
    3MOL   H111  755   0.544   5.748   7.230  0.1823 -0.9392 -1.2810
    3MOL   H112  756   0.623   5.361   7.479 -0.0610  0.3769  1.7608
    3MOL   H113  757   0.452   5.365   7.489  2.3143 -0.7865  1.8271
    3MOL   C114  758   0.525   5.320   7.290 -0.0347  0.7561  0.6216
    3MOL   C115  759   0.522   5.164   7.310  0.5974  0.5503  0.7030
    3MOL   C116  760   0.431   5.113   7.399 -0.1771  0.3391  0.7207
    3MOL   C117  761   0.430   4.977   7.430 -0.7163  0.3652 -0.2873
    3MOL  Cl118  762   0.309   4.926   7.546  0.1116  0.2717 -0.1520
    3MOL   C119  763   0.527   4.891   7.371  0.1094  0.5828  0.3581
    3MOL   C120  764   0.613   4.943   7.276  0.3561  0.4317 -0.3254
    3MOL   C121  765   0.619   5.082   7.256  0.5843 -0.1047 -0.5440
    3MOL   C122  766   0.397   5.364   7.209  0.7043  0.2468 -0.6347
    3MOL   H123  767   0.608   5.340   7.222  0.7845 -0.1650  1.3373
    3MOL   H124  768   0.352   5.178   7.433  1.3457  2.4298  0.3777
    3MOL   H125  769   0.542   4.785   7.386 -1.0117  0.7600  3.0418
    3MOL   H126  770   0.680   4.880   7.219 -1.1186  0.1155 -1.7336
    3MOL   H127  771   0.690   5.128   7.189  1.2593 -2.2479 -1.3423
    3MOL   H128  772   0.320   5.314   7.268  1.7335  1.3531  1.6863
    3MOL   H129  773   0.379   5.471   7.210 -3.9493 -0.4532 -0.1278
    3MOL   C130  774   0.399   5.314   7.065 -0.6498  0.2606  0.5349
    3MOL   C131  775   0.257   5.279   7.015  0.4082 -0.2977  0.1762
    3MOL   C132  776   0.212   5.143   7.004 -0.3781 -0.3949 -0.5317
    3MOL   C133  777   0.087   5.113   6.957  0.6425  0.3417 -0.4971
    3MOL  Cl134  778   0.038   4.947   6.934  0.0555 -0.0865 -0.1927
    3MOL   C135  779   0.008   5.216   6.898 -0.0242  0.0835 -0.0061
    3MOL   C136  780   0.044   5.352   6.920 -0.0801 -0.0267 -0.4856
    3MOL   C137  781   0.168   5.385   6.982 -0.0892 -0.1989  0.4451
    3MOL   C138  782   0.470   5.407   6.967 -0.2524  0.6298 -0.1750
    3MOL   H139  783   0.456   5.221   7.066 -1.8122 -0.4645  0.4853
    3MOL   H140  784   0.280   5.064   7.035 -0.5814 -0.0540  0.8300
    3MOL   H141  785   8.345   5.192   6.859  0.1067 -0.6709  0.1122
    3MOL   H142  786   8.410   5.429   6.889  0.2121  0.3647 -0.1567
    3MOL   H143  787   0.200   5.488   6.990 -1.6868  0.3519 -0.0702
    3MOL   H144  788   0.415   5.500   6.956  1.8892  1.7160 -2.1005
    3MOL   H145  789   0.568   5.443   6.998 -1.5346  2.7587  1.5246
    3MOL   C146  790   0.496   5.338   6.822 -0.4028  0.5509 -0.0313
    3MOL   C147  791   0.482   5.434   6.705 -0.4214 -0.0828 -0.1534
    3MOL   C148  792   0.592   5.519   6.674  0.2957 -0.0147 -0.7671
    3MOL   C149  793   0.575   5.621   6.578 -0.8921 -0.0170 -0.3359
    3MOL  Cl150  794   0.698   5.733   6.556 -0.3236 -0.2520  0.2649
    3MOL   C151  795   0.452   5.614   6.514 -0.4921 -0.1972  0.8066
    3MOL   C152  796   0.351   5.521   6.533  0.4711  0.4891 -0.2060
    3MOL   C153  797   0.368   5.425   6.628 -0.3189  0.0691  0.6990
    3MOL   C154  798   0.625   5.243   6.830 -0.0234  0.0107 -0.1097
    3MOL   H155  799   0.410   5.273   6.803 -0.9469  1.3295 -0.2907
    3MOL   H156  800   0.682   5.524   6.733 -2.1307  0.2374  3.0683
    3MOL   H157  801   0.442   5.681   6.430  2.3980  1.8815  2.0069
    3MOL   H158  802   0.261   5.530   6.474 -0.7163 -1.7363  1.2350
    3MOL   H159  803   0.297   5.345   6.638  0.6259 -0.7860  0.6811
    3MOL   H160  804   0.705   5.305   6.789 -0.6223 -0.9699 -2.8423
    3MOL   H161  805   0.643   5.208   6.932 -0.4454 -1.3080 -0.4776
    3MOL   C162  806   0.609   5.110   6.753  0.2083 -0.0299  0.9337
    3MOL   C163  807   0.752   5.056   6.723 -0.1766  0.0983  0.0679
    3MOL   C164  808   0.835   4.992   6.824 -0.1600  0.1381  0.3733
    3MOL   C165  809   0.956   4.931   6.791 -0.5776  0.1972  0.0491
    3MOL  Cl166  810   1.060   4.869   6.916  0.0637  0.1587  0.0031
    3MOL   C167  811   1.000   4.928   6.658 -0.8321 -0.0020 -0.3440
    3MOL   C168  812   0.912   4.982   6.556 -0.7407  0.2717 -0.1168
    3MOL   C169  813   0.795   5.053   6.589  0.0435  0.4973  0.5617
    3MOL   C170  814   0.523   5.006   6.831  1.0518 -0.2659 -0.4663
    3MOL   H171  815   0.557   5.141   6.662 -0.6547 -2.8296  0.4155
    3MOL   H172  816   0.801   4.988   6.926  2.5519 -1.0383  1.2783
    3MOL   H173  817   1.099   4.897   6.630 -1.6030 -2.2957 -0.6699
    3MOL   H174  818   0.945   4.986   6.453 -2.1425  1.6175 -0.5349
    3MOL   H175  819   0.737   5.093   6.507 -0.0091 -0.9877 -0.1501
    3MOL   H176  820   0.591   4.946   6.892  1.8527  1.9899  0.9382
    3MOL   H177  821   0.463   5.058   6.906 -0.4341 -4.3499  1.3178
    3MOL   C178  822   0.449   4.906   6.739 -0.2973 -0.1705 -0.5428
    3MOL   C179  823   0.442   4.771   6.810 -0.1394  0.9377  0.2287
    3MOL   C180  824   0.340   4.740   6.900  0.1634 -0.1773  0.2309
    3MOL   C181  825   0.329   4.618   6.964  0.0922  0.0911 -0.5789
    3MOL  Cl182  826   0.189   4.597   7.062 -0.1212 -0.0203 -0.0509
    3MOL   C183  827   0.424   4.519   6.952  0.6746  0.5652 -0.1087
    3MOL   C184  828   0.532   4.547   6.858 -0.3242 -0.4240  0.1088
    3MOL   C185  829   0.539   4.668   6.791  0.0567 -0.9438  0.0936
    3MOL   C186  830   0.310   4.954   6.691  0.3896  0.8697 -0.2710
    3MOL   H187  831   0.517   4.896   6.655  1.6592  0.4533  0.9240
    3MOL   H188  832   0.273   4.820   6.927  2.4161  1.7535  0.2206
    3MOL   H189  833   0.416   4.421   6.995  4.4708  0.3946  0.4021
    3MOL   H190  834   0.607   4.470   6.847  0.9710  1.0821 -2.0180
    3MOL   H191  835   0.629   4.696   6.738  0.2792 -0.0183  0.9628
    3MOL   H192  836   0.224   4.904   6.735  2.0334 -0.3139  1.7495
    3MOL   H193  837   0.297   5.059   6.716  1.0781  1.4990 -2.4739
    3MOL   C194  838   0.297   4.940   6.539  0.2370  0.1885 -0.6488
    3MOL   C195  839   0.153   4.929   6.494  0.0876 -0.3922 -0.3314
    3MOL   C196  840   0.048   4.989   6.574 -0.6124 -0.1571  0.0968
    3MOL   C197  841   8.347   4.960   6.553  0.3619 -0.3983 -0.2292
    3MOL  Cl198  842   8.226   5.041   6.647 -0.1084 -0.0273 -0.4526
    3MOL   C199  843   8.309   4.890   6.438 -0.5406 -0.6763 -0.6227
    3MOL   C200  844   8.405   4.840   6.352 -0.5241 -0.2602 -0.6349
    3MOL   C201  845   0.109   4.855   6.384  0.4262  0.0539 -0.1879
    3MOL   C202  846   0.364   5.048   6.455 -0.0425 -0.1376 -1.1059
    3MOL   H203  847   0.343   4.844   6.515  0.4369  0.1093  0.0362
    3MOL   H204  848   0.063   5.054   6.659  0.7512  0.0504 -0.2967
    3MOL   H205  849   8.204   4.868   6.419 -0.9927  0.9601 -0.0728
    3MOL   H206  850   8.380   4.779   6.267  0.0504  0.1172 -1.0821
    3MOL   H207  851   0.178   4.794   6.327 -2.0267 -0.3521 -2.8511
    3MOL   H208  852   0.337   5.139   6.509 -0.7585 -0.6163 -0.6532
    3MOL   H209  853   0.472   5.033   6.463 -0.0306  0.1736 -0.6360
    3MOL   C210  854   0.336   5.067   6.303  0.5018 -0.5964 -0.1636
    3MOL   C211  855   0.374   5.206   6.252  0.8194  0.2647 -0.5690
    3MOL   C212  856   0.271   5.288   6.194 -0.1793  1.0966  0.1485
    3MOL   C213  857   0.303   5.408   6.136  0.0284 -0.1126  0.0130
    3MOL  Cl214  858   0.189   5.504   6.048 -0.4417 -0.0712 -0.2808
    3MOL   C215  859   0.437   5.452   6.127 -0.6311  0.6633 -1.0749
    3MOL   C216  860   0.540   5.374   6.183 -0.0385 -0.7698 -1.0658
    3MOL   C217  861   0.508   5.253   6.246 -0.5248 -0.8500  0.1847
    3MOL   C218  862   0.403   4.955   6.218 -0.2617 -0.4465  0.2807
    3MOL   H219  863   0.227   5.067   6.295  0.3536  2.3835  1.2928
    3MOL   H220  864   0.167   5.258   6.194 -0.2985  1.4443 -1.8585
    3MOL   H221  865   0.465   5.547   6.083 -0.8270  1.1056 -0.2619
    3MOL   H222  866   0.646   5.393   6.182 -0.5052  2.0760 -0.8710
    3MOL   H223  867   0.585   5.190   6.289 -0.7262 -1.3266 -0.1482
    3MOL   H224  868   0.508   4.975   6.238 -0.4824 -0.5463  1.5944
    3MOL   H225  869   0.382   4.858   6.262 -0.8490  0.2132  1.4951
    3MOL   C226  870   0.377   4.955   6.064 -0.6390  1.1911  0.9541
    3MOL   C227  871   0.503   4.930   5.986 -0.3581 -0.1072  0.0361
    3MOL   C228  872   0.584   5.044   5.956  0.1599 -0.2636 -0.2942
    3MOL   C229  873   0.703   5.029   5.881 -0.2405  0.9310  1.3388
    3MOL  Cl230  874   0.801   5.165   5.840 -0.2726  0.1464  0.2669
    3MOL   C231  875   0.740   4.898   5.833 -0.5976  0.1090 -0.4648
    3MOL   C232  876   0.665   4.784   5.872 -0.3165  0.1643  0.2525
    3MOL   C233  877   0.549   4.800   5.957  0.3110 -0.0795  0.4485
    3MOL   C234  878   0.254   4.863   6.038  0.3777 -0.5612 -0.5334
    3MOL   H235  879   0.350   5.058   6.042  1.3855  1.5173 -0.1033
    3MOL   H236  880   0.547   5.143   5.979  0.3413 -0.3007  0.1666
    3MOL   H237  881   0.832   4.884   5.777  0.1287  0.7108  0.5550
    3MOL   H238  882   0.703   4.687   5.841  0.2228  0.9681 -1.6781
    3MOL   H239  883   0.501   4.710   5.992  1.8508 -0.9952  0.2675
    3MOL   H240  884   0.268   4.767   6.087 -0.6966 -0.6378 -0.3586
    3MOL   H241  885   0.166   4.906   6.087  1.1635  2.2230 -1.4679
    3MOL   C242  886   0.202   4.853   5.892 -0.6851 -0.8085 -0.7852
    3MOL   C243  887   0.093   4.740   5.882  0.6135 -0.0927  0.2163
    3MOL   C244  888   0.096   4.656   5.771  0.4123  0.5303 -0.6161
    3MOL   C245  889   0.003   4.555   5.747 -0.2126  0.7594  0.0701
    3MOL  Cl246  890   0.020   4.461   5.607 -0.0227 -0.7741  0.8099
    3MOL   C247  891   8.331   4.546   5.836 -0.1960  0.5404  0.5180
    3MOL   C248  892   8.320   4.631   5.951  0.4755 -0.0723 -0.0364
    3MOL   C249  893   8.419   4.732   5.975  0.0591  0.2776  0.3883
    3MOL   C250  894   0.144   4.984   5.827 -0.1965  0.8149  0.3040
    3MOL   H251  895   0.284   4.818   5.830 -0.7173 -2.4124  0.0721
    3MOL   H252  896   0.174   4.650   5.696  0.9590 -1.0866  0.0498
    3MOL   H253  897   8.253   4.474   5.818 -0.3931  1.5222 -3.0039
    3MOL   H254  898   8.239   4.623   6.022  0.3128  1.3931 -0.0295
    3MOL   H255  899   8.423   4.797   6.061 -0.7184  2.2112 -0.9922
    3MOL   H256  900   0.068   4.956   5.755 -1.3918  1.2203  1.3836
    3MOL   H257  901   0.097   5.038   5.910 -1.8507 -1.8104  1.1398
    3MOL   C258  902   0.245   5.078   5.751 -0.2245 -0.1233 -0.5564
    3MOL   C259  903   0.311   5.013   5.624 -0.6589  0.8580  0.2546
    3MOL   C260  904   0.448   5.039   5.598 -0.3057 -0.1201 -0.9023
    3MOL   C261  905   0.507   4.993   5.478 -0.4828 -0.1797  0.3314
    3MOL  Cl262  906   0.666   5.036   5.435 -0.0472  0.5417  0.2216
    3MOL   C263  907   0.436   4.908   5.394 -0.3641 -0.0858  0.1693
    3MOL   C264  908   0.308   4.865   5.431  0.3161 -0.2220  0.5877
    3MOL   C265  909   0.242   4.923   5.542 -0.5890  0.6166 -0.1284
    3MOL   C266  910   0.173   5.220   5.718 -0.2998 -0.2011 -0.4331
    3MOL   H267  911   0.327   5.095   5.820  0.2631  1.2230 -1.4311
    3MOL   H268  912   0.505   5.098   5.668 -0.5926 -0.7591 -0.1243
    3MOL   H269  913   0.481   4.877   5.301  1.6531  1.9020  0.4467
    3MOL   H270  914   0.267   4.787   5.368  1.9012  0.3197 -1.1693
    3MOL   H271  915   0.139   4.897   5.561 -0.8945  0.8957 -1.3614
    3MOL   H272  916   0.079   5.182   5.677 -0.7153 -0.5074  0.7842
    3MOL   H273  917   0.142   5.262   5.813 -2.2804  0.5713 -1.3878
    3MOL   C274  918   0.254   5.323   5.632  0.4094 -0.3974  0.0740
    3MOL   C275  919   0.160   5.441   5.583  0.2690 -0.6129  1.1451
    3MOL   C276  920   0.141   5.467   5.449  0.1543  0.1723  0.3288
    3MOL   C277  921   0.062   5.571   5.403  0.0239 -0.7990  0.7486
    3MOL  Cl278  922   0.057   5.607   5.227  0.3330 -0.0195 -0.0468
    3MOL   C279  923   0.006   5.655   5.500 -0.1981 -0.3295 -0.2751
    3MOL   C280  924   0.011   5.630   5.635  0.3416 -0.4550 -0.3081
    3MOL   C281  925   0.095   5.527   5.682  0.1422 -0.3311 -0.2211
    3MOL   C282  926   0.379   5.385   5.704  0.3686  0.3231 -0.0526
    3MOL   H283  927   0.278   5.272   5.538 -0.4960 -0.6881 -0.0079
    3MOL   H284  928   0.189   5.402   5.377  1.9194  1.4238  0.3212
    3MOL   H285  929   8.362   5.723   5.472  0.4957  0.4063 -0.4767
    3MOL   H286  930   8.393   5.694   5.703  0.9416  0.7750 -0.9905
    3MOL   H287  931   0.096   5.504   5.787 -0.5911  0.0774 -0.1265
    3MOL   H288  932   0.336   5.440   5.788  0.3862 -1.2980  1.0380
    3MOL   H289  933   0.438   5.301   5.739 -0.2445  0.0816  0.4091
    3MOL   C290  934   0.461   5.482   5.616  0.0743 -0.0852  0.4664
    3MOL   C291  935   0.475   5.618   5.682 -0.2944  0.1104 -0.1580
    3MOL   C292  936   0.533   5.633   5.809  0.3215  0.2586  0.4039
    3MOL   C293  937   0.533   5.761   5.874  0.7184  0.3309  0.3052
    3MOL  Cl294  938   0.619   5.791   6.029 -0.2985 -0.5152 -0.1477
    3MOL   C295  939   0.473   5.866   5.807 -0.1483  0.4005  1.2547
    3MOL   C296  940   0.419   5.856   5.682  0.5808  0.4458 -0.1521
    3MOL   C297  941   0.423   5.728   5.616  0.0634 -0.2094  0.2485
    3MOL   C298  942   0.605   5.427   5.590 -0.5177 -0.3822  0.5890
    3MOL   H299  943   0.404   5.491   5.524  2.0669 -2.4421 -1.0696
    3MOL   H300  944   0.573   5.541   5.850 -2.6820 -0.0301  2.8426
    3MOL   H301  945   0.476   5.963   5.855  1.5263  0.1998  1.6036
    3MOL   H302  946   0.382   5.947   5.638  0.0759  0.6289  0.6452
    3MOL   H303  947   0.379   5.714   5.519  2.1791 -2.1017 -0.4629
    3MOL   H304  948   0.673   5.453   5.672 -0.7109  0.8957  0.3611
    3MOL   H305  949   0.597   5.319   5.583 -0.4087 -0.4388  1.3054
    3MOL   C306  950   0.649   5.474   5.450  0.3886 -0.3789  0.0577
    3MOL   C307  951   0.799   5.454   5.433 -0.5791 -0.6163  0.3925
    3MOL   C308  952   0.875   5.523   5.337  0.2449 -0.2399  0.1287
    3MOL   C309  953   1.014   5.502   5.323 -0.3946 -0.2880 -0.1195
    3MOL  Cl310  954   1.103   5.602   5.212  0.1900  0.2834 -0.1273
    3MOL   C311  955   1.076   5.395   5.393 -0.5106  0.3511 -0.0402
    3MOL   C312  956   0.998   5.326   5.486  1.1347  0.1736  0.5924
    3MOL   C313  957   0.867   5.356   5.514  0.9877 -0.2830 -0.3973
    3MOL   C314  958   0.582   5.401   5.329 -0.7573 -0.3609  0.0384
    3MOL   H315  959   0.637   5.581   5.432 -0.6540 -0.6729 -1.0211
    3MOL   H316  960   0.821   5.593   5.276 -3.0122 -3.0210 -0.3292
    3MOL   H317  961   1.178   5.364   5.376  0.4634  3.1093  0.4996
    3MOL   H318  962   1.039   5.239   5.536 -2.0132 -1.6460  0.1874
    3MOL   H319  963   0.833   5.284   5.587  1.2060  0.7318  0.7259
    3MOL   H320  964   0.613   5.458   5.242 -1.3903  1.2152  0.8298
    3MOL   H321  965   0.621   5.301   5.309 -1.0454 -0.7615  1.3762
    3MOL   H322  966   0.473   5.402   5.335 -0.7944 -0.0781 -0.6546
    4MOL     C1  967   8.289   6.257   6.891 -0.0335  0.4279  0.3009
    4MOL     C2  968   8.222   6.392   6.925 -0.2241 -1.1782 -0.4388
    4MOL     C3  969   8.227   6.500   6.831  0.2273 -0.5686 -0.2758
    4MOL     C4  970   8.165   6.623   6.861 -0.2221 -0.4876  0.4842
    4MOL    Cl5  971   8.183   6.750   6.752  0.0416 -0.1784  0.3288
    4MOL     C6  972   8.095   6.634   6.983  0.7627 -0.1984  0.0970
    4MOL     C7  973   8.091   6.529   7.083  0.0474 -0.4322  0.6016
    4MOL     C8  974   8.154   6.409   7.052  0.1677 -0.3888  0.4585
    4MOL     C9  975   8.185   6.158   6.830  0.3592  0.1465  0.1077
    4MOL    H10  976   8.331   6.224   6.986  0.0973 -1.3683 -0.3592
    4MOL    H11  977   8.280   6.495   6.737 -1.6010  0.6312 -1.3982
    4MOL    H12  978   8.060   6.732   7.012 -1.6259 -0.4764 -1.7205
    4MOL    H13  979   8.053   6.540   7.184  0.7140 -0.2884  0.8365
    4MOL    H14  980   8.141   6.329   7.123  0.7723  0.3325  1.3883
    4MOL    H15  981   8.221   6.056   6.831 -0.4192 -0.1270  0.6189
    4MOL    H16  982   8.106   6.148   6.905 -0.3021 -0.0082 -0.5972
    4MOL    H17  983   8.376   6.270   6.826  0.6138  0.6666  1.2005
    4MOL    C18  984   8.123   6.187   6.689  0.0857 -0.0400 -0.0762
    4MOL    C19  985   8.192   6.107   6.578 -0.1825 -0.1209  0.2158
    4MOL    C20  986   8.197   5.967   6.581  0.4882 -0.6513  0.3491
    4MOL    C21  987   8.263   5.894   6.478  0.1053  0.0778 -0.7327
    4MOL   Cl22  988   8.250   5.717   6.477 -0.2754  0.0280  0.3764
    4MOL    C23  989   8.320   5.960   6.365  0.0825 -0.0531 -0.5817
    4MOL    C24  990   8.309   6.097   6.357 -0.4424  0.2028 -0.3190
    4MOL    C25  991   8.246   6.171   6.463  0.3984  0.6180 -0.1671
    4MOL    C26  992   7.971   6.172   6.681  0.1244  0.1742 -0.0138
    4MOL    H27  993   8.159   6.289   6.673  1.5384 -0.4339  0.5666
    4MOL    H28  994   8.141   5.914   6.657 -1.3981  2.5896  1.3201
    4MOL    H29  995   8.351   5.893   6.287  0.9372  0.8180 -0.9951
    4MOL    H30  996   8.333   6.149   6.266 -1.3060 -0.6893 -1.0695
    4MOL    H31  997   8.245   6.278   6.448  0.5927  0.6396 -0.0213
    4MOL    H32  998   7.954   6.138   6.579 -1.1086  0.2779  0.1440
    4MOL    H33  999   7.956   6.080   6.738  1.6933  1.1508  2.0538
    4MOL    C34 1000   7.878   6.287   6.723  0.2676  0.2724  0.0273
    4MOL    C35 1001   7.880   6.403   6.621  0.0382  0.5626 -0.1529
    4MOL    C36 1002   7.844   6.379   6.483  0.4681 -0.1063  0.6961
    4MOL    C37 1003   7.849   6.486   6.390 -0.4928  0.4958 -0.7833
    4MOL   Cl38 1004   7.822   6.463   6.225  0.2961 -0.2816  0.3110
    4MOL    C39 1005   7.886   6.614   6.434 -0.3480 -0.3122 -0.5147
    4MOL    C40 1006   7.905   6.642   6.574  1.0702 -0.3486 -0.4762
    4MOL    C41 1007   7.905   6.533   6.663  0.3171 -0.3516  0.4387
    4MOL    C42 1008   7.736   6.244   6.742 -0.3131  0.1296  0.0139
    4MOL    H43 1009   7.895   6.334   6.820  0.0005  2.2578 -0.8716
    4MOL    H44 1010   7.810   6.282   6.451 -0.5715 -0.1132  1.8117
    4MOL    H45 1011   7.884   6.694   6.361  4.1913 -1.2828 -1.8705
    4MOL    H46 1012   7.925   6.743   6.605  0.6848 -1.0313  2.0976
    4MOL    H47 1013   7.928   6.546   6.768 -0.6612 -2.9861  1.0325
    4MOL    H48 1014   7.666   6.326   6.758 -1.3211 -1.2612  2.9993
    4MOL    H49 1015   7.703   6.203   6.646 -3.1273 -0.5117  1.2150
    4MOL    C50 1016   7.715   6.138   6.850 -0.0564  0.7026  0.2208
    4MOL    C51 1017   7.743   6.186   6.987 -0.2151 -0.2958  0.9009
    4MOL    C52 1018   7.694   6.316   7.030 -0.5262 -0.0111  0.1858
    4MOL    C53 1019   7.735   6.367   7.153  0.0049  0.1485  0.3600
    4MOL   Cl54 1020   7.677   6.518   7.208  0.1215  0.0065  0.2486
    4MOL    C55 1021   7.839   6.305   7.223  0.3515  0.0730 -0.4444
    4MOL    C56 1022   7.875   6.168   7.195 -0.0375  0.0772  0.1001
    4MOL    C57 1023   7.834   6.111   7.068 -0.3213 -0.1297  0.9536
    4MOL    C58 1024   7.580   6.071   6.853 -0.3245 -0.0826  0.6761
    4MOL    H59 1025   7.776   6.050   6.830 -2.5487 -1.1120  0.3679
    4MOL    H60 1026   7.622   6.372   6.972  0.0199  1.4225  0.8792
    4MOL    H61 1027   7.877   6.345   7.316 -0.4947  2.1136 -0.9526
    4MOL    H62 1028   7.945   6.109   7.252 -0.2979 -0.3172  0.0085
    4MOL    H63 1029   7.868   6.015   7.033  1.0648  0.0480  1.8162
    4MOL    H64 1030   7.574   6.008   6.942  1.9743 -2.4094 -0.7299
    4MOL    H65 1031   7.500   6.144   6.866  0.1469  0.4779  0.4559
    4MOL    C66 1032   7.544   5.991   6.723 -0.1718 -0.2684  0.0995
    4MOL    C67 1033   7.649   5.887   6.697 -1.1977  0.2182  0.7861
    4MOL    C68 1034   7.717   5.898   6.571  0.0741  0.1635 -0.2980
    4MOL    C69 1035   7.823   5.812   6.547 -0.2962 -0.7545  0.0378
    4MOL   Cl70 1036   7.907   5.843   6.402 -0.4425 -0.0606  0.1847
    4MOL    C71 1037   7.857   5.707   6.632  0.4282  0.2334 -0.2660
    4MOL    C72 1038   7.786   5.693   6.752 -0.8250  0.5705 -0.5551
    4MOL    C73 1039   7.689   5.787   6.788  0.7371 -0.0108 -0.3192
    4MOL    C74 1040   7.404   5.920   6.723  0.8798  0.3963 -0.3485
    4MOL    H75 1041   7.531   6.069   6.649  1.1811 -0.8668 -0.7861
    4MOL    H76 1042   7.694   5.969   6.493  1.5030 -1.7778 -2.5607
    4MOL    H77 1043   7.934   5.638   6.600  1.0733  1.1091 -0.5974
    4MOL    H78 1044   7.809   5.611   6.818 -0.0453  1.2096 -0.0286
    4MOL    H79 1045   7.648   5.786   6.888 -0.9161  0.7306 -0.9528
    4MOL    H80 1046   7.376   5.900   6.619  1.3244  0.9293 -0.5777
    4MOL    H81 1047   7.415   5.820   6.765 -1.4225  0.7497  1.1909
    4MOL    C82 1048   7.282   5.983   6.799  0.2272  0.7069 -0.5096
    4MOL    C83 1049   7.230   6.119   6.742 -0.4767  0.5876  0.2575
    4MOL    C84 1050   7.182   6.126   6.608 -0.3056 -0.7298 -0.4141
    4MOL    C85 1051   7.142   6.250   6.555 -0.5054  0.0689  0.3411
    4MOL   Cl86 1052   7.092   6.266   6.394  0.1720 -0.2419  0.1770
    4MOL    C87 1053   7.125   6.360   6.639  0.9227 -0.1358  0.2759
    4MOL    C88 1054   7.153   6.347   6.776  0.0421 -0.8391 -0.2387
    4MOL    C89 1055   7.205   6.228   6.828 -0.0250  0.7529 -0.4098
    4MOL    C90 1056   7.160   5.888   6.787 -0.0722  0.4092 -0.4708
    4MOL    H91 1057   7.309   6.000   6.903  1.8063  2.4475 -1.1600
    4MOL    H92 1058   7.184   6.046   6.536  0.8812  0.4255 -1.7182
    4MOL    H93 1059   7.074   6.448   6.602  0.1880 -0.9160 -0.5735
    4MOL    H94 1060   7.128   6.424   6.848 -1.4902 -0.5520 -1.0528
    4MOL    H95 1061   7.206   6.214   6.935 -1.4790 -1.2117 -0.6140
    4MOL    H96 1062   7.065   5.942   6.791  0.4707  1.3345  0.1599
    4MOL    H97 1063   7.148   5.845   6.688  0.0507 -1.3072  0.2515
    4MOL    C98 1064   7.160   5.772   6.897  0.3220 -0.0422 -0.3350
    4MOL    C99 1065   7.129   5.821   7.036  0.4952 -0.1018 -0.0648
    4MOL   C100 1066   7.037   5.925   7.066  0.0581  0.4366 -0.3721
    4MOL   C101 1067   7.032   5.977   7.195 -0.8047 -0.5118 -0.4107
    4MOL  Cl102 1068   6.941   6.113   7.239  0.2881 -0.1665 -0.0155
    4MOL   C103 1069   7.121   5.925   7.293 -0.0364 -0.7038  1.0489
    4MOL   C104 1070   7.212   5.821   7.265 -0.4706  0.6363  0.5806
    4MOL   C105 1071   7.216   5.773   7.135 -0.3248 -0.2937 -0.4412
    4MOL   C106 1072   7.069   5.653   6.849  0.7023 -0.6966 -0.1066
    4MOL   H107 1073   7.263   5.733   6.899  0.6129  0.7170 -0.5120
    4MOL   H108 1074   6.974   5.962   6.986 -0.5120  1.9042  0.7196
    4MOL   H109 1075   7.122   5.963   7.394  1.7517 -0.4181  0.9334
    4MOL   H110 1076   7.272   5.783   7.346  2.9072 -1.4069 -2.7520
    4MOL   H111 1077   7.285   5.695   7.106 -0.9842 -1.3094  0.6734
    4MOL   H112 1078   7.076   5.572   6.921  0.7713 -0.8449 -0.2791
    4MOL   H113 1079   6.965   5.682   6.861  1.0096  0.0005  0.9829
    4MOL   C114 1080   7.095   5.595   6.696 -0.0694 -0.3417  0.0820
    4MOL   C115 1081   7.242   5.598   6.654  0.4212 -0.2132 -0.3031
    4MOL   C116 1082   7.338   5.535   6.730 -0.1171  0.3400 -0.0705
    4MOL   C117 1083   7.471   5.522   6.681 -0.9843 -0.5280  0.7498
    4MOL  Cl118 1084   7.599   5.435   6.761  0.2056  0.0911 -0.2987
    4MOL   C119 1085   7.511   5.580   6.560 -0.2008  0.2347  0.0966
    4MOL   C120 1086   7.419   5.656   6.488  0.3973  0.3313  0.4065
    4MOL   C121 1087   7.282   5.654   6.532 -0.7054 -0.6413  0.2078
    4MOL   C122 1088   7.041   5.455   6.684  0.4351 -0.0334 -0.3372
    4MOL   H123 1089   7.034   5.649   6.623  0.5227  0.5628  0.2482
    4MOL   H124 1090   7.306   5.467   6.807  1.2411  1.4889  1.5378
    4MOL   H125 1091   7.611   5.561   6.525 -0.4806 -1.0896 -0.0008
    4MOL   H126 1092   7.457   5.696   6.395  1.9982  1.3994  1.5084
    4MOL   H127 1093   7.213   5.707   6.469  0.3754  0.2166 -0.2780
    4MOL   H128 1094   7.090   5.387   6.754 -0.1047 -0.8436 -0.7381
    4MOL   H129 1095   6.938   5.453   6.719 -0.1343  0.1320 -1.9857
    4MOL   C130 1096   7.035   5.407   6.534  0.3611  0.4834 -0.1839
    4MOL   C131 1097   7.081   5.259   6.519 -0.0214  0.0086  0.3592
    4MOL   C132 1098   7.198   5.234   6.451 -0.6051  0.4614 -0.2194
    4MOL   C133 1099   7.237   5.099   6.430 -0.0345 -0.2702 -0.2209
    4MOL  Cl134 1100   7.378   5.064   6.341  0.0311  0.0778  0.4976
    4MOL   C135 1101   7.163   4.991   6.488 -0.0321  0.2803 -0.1475
    4MOL   C136 1102   7.040   5.015   6.554  1.0862  0.5625 -0.5063
    4MOL   C137 1103   7.004   5.152   6.571 -0.1712  0.5312 -0.0082
    4MOL   C138 1104   6.903   5.445   6.453 -0.6234  0.0681 -0.6392
    4MOL   H139 1105   7.113   5.466   6.486 -1.5228  1.8631 -1.6240
    4MOL   H140 1106   7.270   5.303   6.409 -1.1375  1.1753  0.0196
    4MOL   H141 1107   7.202   4.891   6.480  2.3583  0.8857  3.1811
    4MOL   H142 1108   6.990   4.925   6.587  3.0579 -0.2119  0.4490
    4MOL   H143 1109   6.916   5.180   6.627 -0.2476  0.7104 -0.2153
    4MOL   H144 1110   6.825   5.374   6.481 -0.9575  0.3016 -0.9774
    4MOL   H145 1111   6.859   5.536   6.494 -0.3903 -0.1416  0.0945
    4MOL   C146 1112   6.912   5.467   6.300  1.3504  0.4366  0.3627
    4MOL   C147 1113   7.017   5.575   6.260  0.2695 -0.1357  0.3341
    4MOL   C148 1114   6.992   5.717   6.268  0.3690  0.0994  0.6695
    4MOL   C149 1115   7.086   5.811   6.240 -0.0606 -0.2003  0.3143
    4MOL  Cl150 1116   7.042   5.974   6.258  0.2383 -0.2687 -0.2615
    4MOL   C151 1117   7.219   5.770   6.200  0.0962  0.5591  0.3934
    4MOL   C152 1118   7.247   5.628   6.197 -0.7017 -0.2070  0.2388
    4MOL   C153 1119   7.145   5.528   6.215 -0.4564 -0.5158 -0.6452
    4MOL   C154 1120   6.920   5.336   6.216 -0.0090  0.1428  0.0451
    4MOL   H155 1121   6.812   5.505   6.282  0.6587 -1.3889  0.2222
    4MOL   H156 1122   6.894   5.756   6.291  0.0604 -0.2035 -0.1147
    4MOL   H157 1123   7.297   5.843   6.185  0.9021  0.0611  2.0750
    4MOL   H158 1124   7.347   5.602   6.166 -0.9415 -0.0383 -0.7021
    4MOL   H159 1125   7.173   5.424   6.210 -0.0328 -0.5019  1.3120
    4MOL   H160 1126   6.931   5.357   6.110  1.3815  0.8224  0.3194
    4MOL   H161 1127   7.010   5.283   6.247  0.4506  1.8627  1.7447
    4MOL   C162 1128   6.821   5.225   6.246  0.7655 -0.4985 -0.1813
    4MOL   C163 1129   6.675   5.266   6.224  0.3942  0.3314  0.0392
    4MOL   C164 1130   6.570   5.235   6.322 -0.5545 -0.4670  0.0375
    4MOL   C165 1131   6.432   5.265   6.295 -0.3341  0.7970  0.0337
    4MOL  Cl166 1132   6.305   5.227   6.398  0.1705  0.0012 -0.0784
    4MOL   C167 1133   6.400   5.337   6.178 -0.4403  0.4528  0.1717
    4MOL   C168 1134   6.501   5.361   6.080  0.0421 -0.3565 -0.1297
    4MOL   C169 1135   6.637   5.332   6.109  0.2829 -0.1136 -0.0589
    4MOL   C170 1136   6.848   5.093   6.172  0.2148  0.4861  0.3878
    4MOL   H171 1137   6.846   5.204   6.350  0.5783 -0.4354 -0.1227
    4MOL   H172 1138   6.586   5.194   6.420  1.1591  0.5455  0.2035
    4MOL   H173 1139   6.299   5.362   6.147 -0.0115  1.1705 -0.6746
    4MOL   H174 1140   6.487   5.411   5.986 -2.3144 -0.4077  0.1600
    4MOL   H175 1141   6.711   5.355   6.034 -0.9960 -1.6560 -1.8447
    4MOL   H176 1142   6.842   5.110   6.065 -0.6558  1.0392  0.5175
    4MOL   H177 1143   6.954   5.069   6.180  0.1473  0.4749  1.3239
    4MOL   C178 1144   6.759   4.972   6.204 -0.0601 -0.5245  0.0431
    4MOL   C179 1145   6.765   4.863   6.098 -0.4155  0.3330 -0.6656
    4MOL   C180 1146   6.887   4.794   6.062 -0.2532  0.8689 -0.0698
    4MOL   C181 1147   6.890   4.690   5.968  0.0380 -0.7245  0.1139
    4MOL  Cl182 1148   7.043   4.622   5.925 -0.3163 -0.2750 -0.3654
    4MOL   C183 1149   6.772   4.642   5.911 -0.3400 -0.9771  0.3760
    4MOL   C184 1150   6.653   4.713   5.937  0.3396 -0.3397 -0.0020
    4MOL   C185 1151   6.645   4.821   6.027  0.5783 -0.3226  1.0575
    4MOL   C186 1152   6.766   4.919   6.351 -0.1347 -0.5517 -0.6680
    4MOL   H187 1153   6.658   5.008   6.184  0.9894  2.5394  0.0847
    4MOL   H188 1154   6.979   4.839   6.097 -1.4793  1.7668  2.0805
    4MOL   H189 1155   6.785   4.567   5.834  0.4760 -1.7806  1.2908
    4MOL   H190 1156   6.560   4.676   5.894  1.0523 -1.0547 -0.9541
    4MOL   H191 1157   6.550   4.864   6.057  0.7241  0.1537  0.8350
    4MOL   H192 1158   6.863   4.875   6.375 -0.0235 -1.1776 -2.1812
    4MOL   H193 1159   6.752   4.998   6.424 -0.4168 -0.4670 -0.8103
    4MOL   C194 1160   6.658   4.810   6.377  0.4835 -0.0965 -0.1741
    4MOL   C195 1161   6.682   4.758   6.519 -0.1311 -0.1501  0.7801
    4MOL   C196 1162   6.738   4.631   6.533 -0.4144 -0.0615 -0.4955
    4MOL   C197 1163   6.784   4.589   6.660 -0.3400 -0.0964 -0.4633
    4MOL  Cl198 1164   6.849   4.431   6.680  0.7272  0.0200  0.4513
    4MOL   C199 1165   6.772   4.676   6.768  0.1053 -0.0642 -0.3123
    4MOL   C200 1166   6.701   4.799   6.762  0.3674  0.1777 -0.4700
    4MOL   C201 1167   6.662   4.837   6.635 -0.4088 -1.6982  0.2455
    4MOL   C202 1168   6.512   4.868   6.367  0.1751  0.0956 -0.3240
    4MOL   H203 1169   6.675   4.719   6.320  0.2400 -2.0959  2.8469
    4MOL   H204 1170   6.756   4.574   6.443 -0.0117 -0.5638 -0.1003
    4MOL   H205 1171   6.794   4.644   6.869 -1.2142 -2.1296 -0.6382
    4MOL   H206 1172   6.697   4.863   6.849 -0.5579  0.0950 -0.4523
    4MOL   H207 1173   6.630   4.938   6.617  1.9826 -0.8974  0.2827
    4MOL   H208 1174   6.508   4.965   6.417 -0.0999 -0.2087  0.2448
    4MOL   H209 1175   6.486   4.881   6.262 -1.4071 -0.6348 -0.0475
    4MOL   C210 1176   6.395   4.773   6.410  0.4742 -0.5528 -0.9308
    4MOL   C211 1177   6.260   4.847   6.381  0.1693  0.2548  0.1178
    4MOL   C212 1178   6.179   4.877   6.493 -0.1094 -0.0558  0.5528
    4MOL   C213 1179   6.059   4.944   6.472  0.1965 -0.1437 -0.7292
    4MOL  Cl214 1180   5.947   4.961   6.613 -0.2303  0.2272 -0.3526
    4MOL   C215 1181   6.021   4.990   6.339 -0.9050 -0.3365  0.3180
    4MOL   C216 1182   6.109   4.968   6.228  0.4474  0.4308  0.5549
    4MOL   C217 1183   6.229   4.895   6.252 -0.2838  0.1441  0.5581
    4MOL   C218 1184   6.399   4.633   6.344 -0.0764  0.0029  0.4000
    4MOL   H219 1185   6.404   4.761   6.518  0.9283 -0.9053 -1.0063
    4MOL   H220 1186   6.210   4.847   6.592  1.6872  0.3125  0.1195
    4MOL   H221 1187   5.929   5.044   6.323  0.3535  2.0952  1.0651
    4MOL   H222 1188   6.080   5.011   6.134  0.1335  1.3552  1.0644
    4MOL   H223 1189   6.286   4.871   6.163  0.8637  2.4106  0.6278
    4MOL   H224 1190   6.407   4.646   6.236  1.1725 -2.4870  0.1428
    4MOL   H225 1191   6.488   4.586   6.386 -1.1658  0.1424  2.9712
    4MOL   C226 1192   6.279   4.544   6.372 -0.5025  0.4770  0.3904
    4MOL   C227 1193   6.289   4.414   6.294 -0.0397 -0.5970 -0.2281
    4MOL   C228 1194   6.380   4.315   6.337  0.5112 -0.3937  0.4658
    4MOL   C229 1195   6.384   4.193   6.267  0.1932  0.1503  0.0777
    4MOL  Cl230 1196   6.486   4.067   6.321 -0.1588  0.5642  0.1290
    4MOL   C231 1197   6.298   4.178   6.156  0.5207  0.3756 -0.8032
    4MOL   C232 1198   6.210   4.274   6.110 -0.1216  0.1610 -0.7730
    4MOL   C233 1199   6.202   4.394   6.183  0.2900 -0.0888 -0.1530
    4MOL   C234 1200   6.239   4.522   6.519  0.4023  0.4797 -0.4824
    4MOL   H235 1201   6.195   4.598   6.326  0.1290  1.9412  0.9279
    4MOL   H236 1202   6.448   4.328   6.419 -0.0630  0.8293  0.7592
    4MOL   H237 1203   6.294   4.081   6.108 -1.4133  0.2750 -0.5001
    4MOL   H238 1204   6.161   4.264   6.014 -2.6873  1.5520  0.3694
    4MOL   H239 1205   6.137   4.477   6.158  2.4010  0.9356 -2.5681
    4MOL   H240 1206   6.298   4.439   6.558 -0.3891 -0.4137 -1.1663
    4MOL   H241 1207   6.248   4.610   6.583 -0.5738 -0.1747  0.5983
    4MOL   C242 1208   6.093   4.468   6.536  0.2095  0.0171  0.1037
    4MOL   C243 1209   6.066   4.420   6.680 -0.6779  0.3073  0.5599
    4MOL   C244 1210   6.022   4.288   6.709 -0.7122 -0.2655  0.1569
    4MOL   C245 1211   5.985   4.250   6.836  0.5438 -0.0228 -0.0825
    4MOL  Cl246 1212   5.924   4.088   6.858 -0.0306  0.5480  0.6267
    4MOL   C247 1213   5.993   4.337   6.949  0.5308  0.7004 -0.6022
    4MOL   C248 1214   6.050   4.468   6.930 -0.7563  0.5844  0.1096
    4MOL   C249 1215   6.076   4.505   6.793 -0.7350 -0.5550  0.1774
    4MOL   C250 1216   5.978   4.568   6.481  0.0029 -0.7011  0.4366
    4MOL   H251 1217   6.083   4.381   6.471  0.5462  0.6705 -0.8316
    4MOL   H252 1218   6.011   4.218   6.628  2.2642  0.7971 -1.2377
    4MOL   H253 1219   5.968   4.310   7.050 -1.2481  2.1973 -0.6216
    4MOL   H254 1220   6.070   4.537   7.010  0.8703  0.7944 -0.4523
    4MOL   H255 1221   6.115   4.605   6.775 -1.4398 -0.0457  1.4545
    4MOL   H256 1222   5.985   4.663   6.533  0.1239 -0.0079 -0.8370
    4MOL   H257 1223   5.970   4.576   6.373  0.4083  1.5389  0.5557
    4MOL   C258 1224   5.831   4.526   6.524 -0.1516 -0.1290 -0.0964
    4MOL   C259 1225   5.731   4.646   6.501  0.8152 -0.1204 -0.3634
    4MOL   C260 1226   5.744   4.715   6.371 -0.1030  0.8368 -0.0761
    4MOL   C261 1227   5.671   4.832   6.351  0.0202 -0.0427 -0.4669
    4MOL  Cl262 1228   5.661   4.915   6.204 -0.0483  0.1895 -0.3748
    4MOL   C263 1229   5.593   4.885   6.457  0.3721  0.2698  0.8411
    4MOL   C264 1230   5.590   4.823   6.582  0.3018  0.0965  0.2271
    4MOL   C265 1231   5.643   4.697   6.602  0.8045  0.4812  0.0709
    4MOL   C266 1232   5.782   4.394   6.464 -0.1995  0.1709 -0.1049
    4MOL   H267 1233   5.843   4.522   6.632 -2.9875 -0.4368  0.2315
    4MOL   H268 1234   5.800   4.679   6.286  0.9120 -1.7625  1.6204
    4MOL   H269 1235   5.541   4.977   6.439  2.6193  0.9337 -2.5890
    4MOL   H270 1236   5.533   4.876   6.657 -0.5912  0.3453 -0.6080
    4MOL   H271 1237   5.627   4.628   6.683  2.1280 -0.7043 -0.6573
    4MOL   H272 1238   5.766   4.394   6.356 -0.1804  3.2837 -0.1646
    4MOL   H273 1239   5.855   4.314   6.471 -0.5668 -0.2824 -1.3635
    4MOL   C274 1240   5.649   4.339   6.530 -1.0505  0.0110 -0.0383
    4MOL   C275 1241   5.604   4.215   6.451 -0.3912 -0.4397 -0.3299
    4MOL   C276 1242   5.537   4.223   6.329  0.3091 -0.3657  0.0109
    4MOL   C277 1243   5.533   4.108   6.243 -0.1816  0.9521 -0.6297
    4MOL  Cl278 1244   5.463   4.107   6.076  0.1556  0.0923 -0.1799
    4MOL   C279 1245   5.585   3.990   6.286  0.1604 -0.6768 -0.1963
    4MOL   C280 1246   5.644   3.975   6.412 -0.7290 -0.1257  0.7900
    4MOL   C281 1247   5.663   4.090   6.493 -0.0390 -0.0860  0.0399
    4MOL   C282 1248   5.659   4.321   6.684  0.1933  0.6532  0.7580
    4MOL   H283 1249   5.573   4.416   6.513 -0.6056  0.6462  0.8018
    4MOL   H284 1250   5.495   4.317   6.294 -2.4276 -1.2469  0.8106
    4MOL   H285 1251   5.573   3.902   6.225 -2.0996  0.9346 -2.1372
    4MOL   H286 1252   5.680   3.877   6.441  1.0162  0.8903  2.0958
    4MOL   H287 1253   5.720   4.086   6.584 -2.9899 -1.7802  1.8868
    4MOL   H288 1254   5.743   4.260   6.715  0.8695  0.9178 -0.5293
    4MOL   H289 1255   5.680   4.423   6.715 -2.4612  1.4946  0.0075
    4MOL   C290 1256   5.543   4.262   6.765  0.2474  0.3147 -0.3310
    4MOL   C291 1257   5.581   4.258   6.913  0.9992 -0.6947 -0.3376
    4MOL   C292 1258   5.627   4.377   6.974 -0.7411  0.0742  0.6114
    4MOL   C293 1259   5.672   4.370   7.104 -0.6789  0.7379  0.5070
    4MOL  Cl294 1260   5.755   4.512   7.158  0.3253  0.2569 -0.2849
    4MOL   C295 1261   5.655   4.257   7.189  0.2368  0.0530  0.5724
    4MOL   C296 1262   5.587   4.146   7.133  0.1021  0.1180 -0.1050
    4MOL   C297 1263   5.558   4.141   6.993 -0.6110 -0.1197  0.0118
    4MOL   C298 1264   5.406   4.331   6.745 -0.5524  0.1822 -0.5342
    4MOL   H299 1265   5.538   4.157   6.737  0.0757  0.2313  0.0092
    4MOL   H300 1266   5.647   4.464   6.914 -3.1208 -1.2496 -2.2472
    4MOL   H301 1267   5.692   4.263   7.290  1.0368  1.7125  0.1882
    4MOL   H302 1268   5.575   4.062   7.199  0.5911  0.0039 -0.1581
    4MOL   H303 1269   5.499   4.062   6.948 -2.3518  1.0840  0.1188
    4MOL   H304 1270   5.418   4.439   6.753 -3.2437  0.4132  0.8357
    4MOL   H305 1271   5.379   4.309   6.642  1.7304 -0.4495 -1.0388
    4MOL   C306 1272   5.286   4.293   6.832  0.0840 -0.1058  0.1259
    4MOL   C307 1273   5.178   4.401   6.847  0.4911  0.6719  0.8100
    4MOL   C308 1274   5.079   4.422   6.748 -0.0313 -0.1340  0.7363
    4MOL   C309 1275   4.979   4.516   6.762 -0.6642 -0.8773 -0.3407
    4MOL  Cl310 1276   4.856   4.531   6.636  0.1326  0.2801 -0.2131
    4MOL   C311 1277   4.971   4.597   6.878  0.0503  0.5560  0.1766
    4MOL   C312 1278   5.068   4.579   6.976  0.1093  0.4074  0.4046
    4MOL   C313 1279   5.176   4.488   6.960 -0.1336  0.8841  0.1576
    4MOL   C314 1280   5.233   4.157   6.798 -0.1437  0.4110  0.3968
    4MOL   H315 1281   5.325   4.273   6.932 -1.9418 -1.1254  0.7516
    4MOL   H316 1282   5.071   4.358   6.661 -1.1481 -0.5085  1.1040
    4MOL   H317 1283   4.896   4.675   6.890 -1.3083 -0.7692  0.3772
    4MOL   H318 1284   5.085   4.652   7.053  0.4037  1.7302 -0.8948
    4MOL   H319 1285   5.254   4.491   7.034 -0.0132  0.0218  0.0724
    4MOL   H320 1286   5.151   4.133   6.866  0.0047 -0.9562  0.1222
    4MOL   H321 1287   5.178   4.156   6.704  0.3269  0.5974  0.1177
    4MOL   H322 1288   5.307   4.077   6.803  0.5748  1.0826  0.4699
    5MOL     C1 1289   8.109   2.176   3.099  0.0889 -0.3217 -0.2663
    5MOL     C2 1290   8.072   2.033   3.051  0.4534 -0.4759  0.2991
    5MOL     C3 1291   8.157   1.966   2.962  0.4434  0.2368  0.6527
    5MOL     C4 1292   8.128   1.842   2.909  0.3891  0.2032  0.0443
    5MOL    Cl5 1293   8.222   1.790   2.774 -0.4514 -0.0532 -0.3003
    5MOL     C6 1294   8.016   1.772   2.952 -0.7343  0.3255  0.9296
    5MOL     C7 1295   7.932   1.832   3.048 -0.1257 -0.2354  0.5526
    5MOL     C8 1296   7.957   1.965   3.095  0.1203 -0.5776  0.5154
    5MOL     C9 1297   8.032   2.228   3.226 -0.0149  0.4806  0.2152
    5MOL    H10 1298   8.110   2.245   3.015 -2.3720  1.2143  0.9111
    5MOL    H11 1299   8.243   2.014   2.918  1.0246  2.0304  3.5370
    5MOL    H12 1300   7.983   1.682   2.904  1.0323 -0.6659  1.5420
    5MOL    H13 1301   7.843   1.778   3.078 -0.3585  0.8834  1.9405
    5MOL    H14 1302   7.896   2.003   3.176 -0.4953  1.2064 -0.7727
    5MOL    H15 1303   7.925   2.229   3.206  0.0947 -1.3997 -0.5232
    5MOL    H16 1304   8.047   2.163   3.312 -2.4249  0.6580  0.7904
    5MOL    H17 1305   8.210   2.169   3.139 -0.3984 -1.0228  0.8701
    5MOL    C18 1306   8.072   2.368   3.278  0.1855  0.0526 -0.8225
    5MOL    C19 1307   8.065   2.467   3.162 -0.0180  0.3825 -0.1883
    5MOL    C20 1308   7.941   2.508   3.103  0.0411  0.3096  0.5828
    5MOL    C21 1309   7.945   2.608   3.003 -0.2630  0.2829  0.0700
    5MOL   Cl22 1310   7.802   2.653   2.903  0.2607  0.1296 -0.2071
    5MOL    C23 1311   8.069   2.672   2.976 -0.1332  0.2719 -0.3592
    5MOL    C24 1312   8.189   2.628   3.036  0.3820  0.0009 -0.4870
    5MOL    C25 1313   8.187   2.525   3.131 -0.4114  0.5804  0.1151
    5MOL    C26 1314   7.983   2.407   3.394 -0.2957 -0.2696  0.1933
    5MOL    H27 1315   8.175   2.359   3.310 -0.7939 -1.3233  2.0889
    5MOL    H28 1316   7.845   2.462   3.122  0.2018 -0.2385  0.0929
    5MOL    H29 1317   8.073   2.750   2.902  2.4535 -0.4885 -1.0863
    5MOL    H30 1318   8.279   2.682   3.008 -0.1096  2.0544  1.7086
    5MOL    H31 1319   8.280   2.512   3.186 -2.0456 -2.1606  2.3593
    5MOL    H32 1320   7.947   2.506   3.366  0.4786  0.0748  0.3982
    5MOL    H33 1321   7.903   2.336   3.412  1.5614 -1.6365  3.5972
    5MOL    C34 1322   8.056   2.403   3.531  0.2341  0.3257 -0.3441
    5MOL    C35 1323   8.170   2.498   3.531  0.4356 -0.2581 -0.7070
    5MOL    C36 1324   8.154   2.634   3.497 -0.4172  0.0378 -0.4403
    5MOL    C37 1325   8.262   2.724   3.508 -0.1621 -0.0718 -0.1162
    5MOL   Cl38 1326   8.244   2.888   3.456 -0.7354 -0.4730  0.1843
    5MOL    C39 1327   8.385   2.678   3.551 -0.3107 -0.4888 -0.3164
    5MOL    C40 1328   8.404   2.543   3.583 -0.6016  0.0463 -0.5338
    5MOL    C41 1329   8.297   2.451   3.576 -0.1732  0.0235 -0.6490
    5MOL    C42 1330   7.962   2.423   3.650 -0.6720  0.1208 -0.1698
    5MOL    H43 1331   8.087   2.300   3.548  0.7387  0.6241  0.5989
    5MOL    H44 1332   8.062   2.665   3.449 -0.4842 -0.0517 -0.3706
    5MOL    H45 1333   0.027   2.753   3.565  0.7507 -1.5623 -0.3225
    5MOL    H46 1334   0.067   2.509   3.612 -1.5559 -0.0826  2.7477
    5MOL    H47 1335   8.320   2.348   3.598  3.3342  0.9602  0.3751
    5MOL    H48 1336   7.905   2.512   3.623  1.0860  1.2956 -0.1457
    5MOL    H49 1337   7.887   2.344   3.652  0.3796 -0.9137 -0.7594
    5MOL    C50 1338   8.033   2.450   3.789 -0.1401 -0.4600  0.1747
    5MOL    C51 1339   8.057   2.599   3.818 -0.0028  0.4341  0.8188
    5MOL    C52 1340   8.179   2.646   3.861 -0.1957  0.4033 -0.4911
    5MOL    C53 1341   8.206   2.780   3.893 -0.4930 -0.2637  0.0471
    5MOL   Cl54 1342   8.365   2.820   3.967 -0.1706  0.3496  0.2858
    5MOL    C55 1343   8.107   2.879   3.884 -0.6836  0.5867  0.6897
    5MOL    C56 1344   7.978   2.832   3.845 -0.3075  0.3375 -0.4446
    5MOL    C57 1345   7.953   2.698   3.807  0.2813  0.1131  0.0825
    5MOL    C58 1346   7.957   2.390   3.911  0.0786  0.6211  0.0535
    5MOL    H59 1347   8.133   2.407   3.783 -0.4423 -1.3812  1.4687
    5MOL    H60 1348   8.260   2.576   3.873 -2.7560 -2.6676 -0.5599
    5MOL    H61 1349   8.120   2.985   3.898 -1.4525  0.6587  0.8636
    5MOL    H62 1350   7.907   2.911   3.826  0.9742  1.7470  0.5288
    5MOL    H63 1351   7.855   2.670   3.771 -0.4840  0.0980  2.1063
    5MOL    H64 1352   8.016   2.408   4.001  0.0915 -1.8565  0.5634
    5MOL    H65 1353   7.857   2.433   3.920 -0.0203  0.6659 -1.1614
    5MOL    C66 1354   7.925   2.238   3.909 -0.4254 -0.0713 -0.3270
    5MOL    C67 1355   8.044   2.148   3.863 -0.2757 -0.9608  0.1730
    5MOL    C68 1356   8.041   2.086   3.738 -0.3747 -0.2378  0.3469
    5MOL    C69 1357   8.153   2.017   3.699 -0.5448 -0.5772  0.4725
    5MOL   Cl70 1358   8.163   1.972   3.524  0.0718 -0.3760 -0.1649
    5MOL    C71 1359   8.260   1.997   3.787 -0.1035  0.1212  0.0328
    5MOL    C72 1360   8.260   2.049   3.919 -0.3798  0.3694 -0.1102
    5MOL    C73 1361   8.153   2.126   3.950  0.0682 -0.5242  0.0431
    5MOL    C74 1362   7.859   2.185   4.035 -0.2178  0.8729 -0.3415
    5MOL    H75 1363   7.847   2.230   3.834  0.1158 -2.5250 -0.6610
    5MOL    H76 1364   7.963   2.111   3.668 -0.6117  0.9932  1.0302
    5MOL    H77 1365   8.344   1.938   3.754 -3.0003 -2.5528 -2.8840
    5MOL    H78 1366   8.349   2.034   3.980 -0.5918  1.2013  0.4214
    5MOL    H79 1367   8.144   2.177   4.045  2.2442  0.1022 -0.0632
    5MOL    H80 1368   7.846   2.077   4.028  1.4170  0.4809  2.3057
    5MOL    H81 1369   7.936   2.214   4.107 -2.1807  0.1598  2.1122
    5MOL    C82 1370   7.711   2.233   4.068  0.8783  0.0307  0.5241
    5MOL    C83 1371   7.617   2.175   3.959  0.3497  1.0532  0.3598
    5MOL    C84 1372   7.561   2.050   3.985 -0.6822  0.0064 -0.2696
    5MOL    C85 1373   7.485   1.991   3.886  0.3436  0.9627 -0.1010
    5MOL   Cl86 1374   7.422   1.829   3.889 -0.1889  0.2327 -0.1586
    5MOL    C87 1375   7.455   2.065   3.770 -0.2632  0.1226 -0.1059
    5MOL    C88 1376   7.507   2.194   3.744  0.2737  0.6187 -0.5077
    5MOL    C89 1377   7.592   2.245   3.841 -0.0620 -0.1761  0.3667
    5MOL    C90 1378   7.655   2.211   4.201 -0.1271  0.0430 -0.4633
    5MOL    H91 1379   7.707   2.339   4.044 -0.2921 -0.3788 -1.1569
    5MOL    H92 1380   7.586   1.992   4.072  0.9656  0.3389 -0.5110
    5MOL    H93 1381   7.392   2.025   3.692  0.2907 -0.7724 -0.0940
    5MOL    H94 1382   7.485   2.251   3.655  0.2046  1.2690 -0.0767
    5MOL    H95 1383   7.641   2.341   3.832 -1.3980  0.8679  3.6046
    5MOL    H96 1384   7.552   2.247   4.205 -0.1906  0.0294 -1.6283
    5MOL    H97 1385   7.660   2.103   4.215 -1.4252 -0.1702 -1.4828
    5MOL    C98 1386   7.736   2.285   4.320  0.4907 -0.2522 -0.3680
    5MOL    C99 1387   7.728   2.439   4.322  0.0303  0.0801 -0.0533
    5MOL   C100 1388   7.841   2.516   4.271  0.3102  0.1178 -0.2283
    5MOL   C101 1389   7.827   2.653   4.260 -0.2318  1.0929  0.0906
    5MOL  Cl102 1390   7.962   2.741   4.193  0.6501 -0.1239 -0.0740
    5MOL   C103 1391   7.711   2.719   4.301 -0.2952  0.1048  0.7170
    5MOL   C104 1392   7.611   2.646   4.359  0.6872 -0.3612  0.1340
    5MOL   C105 1393   7.609   2.507   4.360 -0.1298 -0.1488  0.9944
    5MOL   C106 1394   7.724   2.233   4.465  0.2514 -0.2707  0.1071
    5MOL   H107 1395   7.842   2.272   4.303  0.4790 -0.5864 -0.1871
    5MOL   H108 1396   7.937   2.473   4.247 -0.3364 -1.4652 -0.0330
    5MOL   H109 1397   7.702   2.826   4.308  0.0138  0.1505  0.4315
    5MOL   H110 1398   7.518   2.691   4.390  0.1456 -0.3444 -1.4598
    5MOL   H111 1399   7.525   2.457   4.404 -1.2979  0.5034 -0.4593
    5MOL   H112 1400   7.805   2.287   4.514 -0.0241  0.2721 -0.0348
    5MOL   H113 1401   7.626   2.258   4.503  0.4813 -0.1621  0.6268
    5MOL   C114 1402   7.747   2.084   4.484  0.2439 -0.0928 -0.0433
    5MOL   C115 1403   7.866   2.016   4.409  0.2682  0.1543 -0.1659
    5MOL   C116 1404   7.987   2.085   4.401 -0.2764  0.1698  0.1691
    5MOL   C117 1405   8.098   2.022   4.340  0.4125 -0.2745 -0.1890
    5MOL  Cl118 1406   8.253   2.100   4.355  0.1467  0.1225 -0.3253
    5MOL   C119 1407   8.092   1.891   4.287 -0.2206  0.1397 -0.1956
    5MOL   C120 1408   7.974   1.818   4.312  0.2289  0.9711 -0.8540
    5MOL   C121 1409   7.861   1.876   4.369  0.3836 -0.4109 -0.4765
    5MOL   C122 1410   7.749   2.047   4.639 -0.3831  0.3856 -0.5479
    5MOL   H123 1411   7.663   2.028   4.442 -0.6040  3.4177 -3.1965
    5MOL   H124 1412   8.004   2.185   4.437  3.1475  0.0951 -1.0465
    5MOL   H125 1413   8.181   1.837   4.257 -0.8529 -1.6261  1.0377
    5MOL   H126 1414   7.964   1.717   4.274 -0.5054  0.7873 -0.2035
    5MOL   H127 1415   7.770   1.820   4.385  0.0009  0.8075  1.8240
    5MOL   H128 1416   7.856   2.053   4.659  0.0229 -0.3978 -2.4027
    5MOL   H129 1417   7.699   2.121   4.702  1.0689  1.0332 -0.1242
    5MOL   C130 1418   7.679   1.922   4.673 -0.4653  0.0849 -0.1024
    5MOL   C131 1419   7.759   1.824   4.760  0.5727  0.3006 -0.1934
    5MOL   C132 1420   7.728   1.807   4.897  0.6712  0.3324  0.2740
    5MOL   C133 1421   7.796   1.716   4.982 -0.1995  0.5468 -0.5152
    5MOL  Cl134 1422   7.770   1.701   5.151  0.2132  0.3542 -0.3375
    5MOL   C135 1423   7.899   1.644   4.925 -0.4045  0.6329 -0.0967
    5MOL   C136 1424   7.924   1.652   4.783 -0.3985 -0.6487  0.5557
    5MOL   C137 1425   7.870   1.755   4.706 -0.6445 -0.0251 -0.6966
    5MOL   C138 1426   7.539   1.952   4.737 -0.2172 -0.4713  0.4420
    5MOL   H139 1427   7.674   1.860   4.584 -0.4318 -1.5549  1.0260
    5MOL   H140 1428   7.646   1.859   4.943  1.2350  2.2994 -0.9201
    5MOL   H141 1429   7.947   1.567   4.982 -0.8862 -0.8271 -1.6111
    5MOL   H142 1430   8.010   1.592   4.757  0.2266 -0.5979  2.4341
    5MOL   H143 1431   7.908   1.760   4.605  2.5931  0.0104  0.4617
    5MOL   H144 1432   7.497   1.862   4.781  0.9746 -0.0172  2.5696
    5MOL   H145 1433   7.556   2.022   4.819  0.0204 -0.4791  0.4000
    5MOL   C146 1434   7.435   2.018   4.654  1.3894 -0.7706 -0.1844
    5MOL   C147 1435   7.401   1.934   4.526  0.1526 -0.9352  0.2149
    5MOL   C148 1436   7.394   1.791   4.518 -0.0161  0.5345  0.7603
    5MOL   C149 1437   7.375   1.721   4.401  0.1633  0.5363  0.5636
    5MOL  Cl150 1438   7.384   1.546   4.406 -0.0747  0.1933 -0.2145
    5MOL   C151 1439   7.350   1.796   4.283 -0.8087 -0.6347 -0.2509
    5MOL   C152 1440   7.372   1.937   4.281  0.2192  0.2835 -0.1774
    5MOL   C153 1441   7.390   2.003   4.402 -0.3419 -0.4031 -0.0133
    5MOL   C154 1442   7.305   2.033   4.726 -0.4913 -0.3134 -0.5938
    5MOL   H155 1443   7.470   2.116   4.624 -0.2633 -0.2679 -0.5297
    5MOL   H156 1444   7.421   1.730   4.603 -0.0012  0.2892  0.5824
    5MOL   H157 1445   7.317   1.740   4.197 -0.8149 -2.2419  0.7800
    5MOL   H158 1446   7.355   1.991   4.189 -0.2324 -0.7890 -0.7418
    5MOL   H159 1447   7.393   2.111   4.395 -0.5014 -0.3044  1.4109
    5MOL   H160 1448   7.237   2.062   4.646 -0.8855  1.6813  0.4322
    5MOL   H161 1449   7.266   1.938   4.762 -0.0230 -0.1461  0.3750
    5MOL   C162 1450   7.305   2.138   4.839 -0.1266 -0.0739  0.0523
    5MOL   C163 1451   7.358   2.278   4.795  0.2964  0.7346 -0.2454
    5MOL   C164 1452   7.291   2.353   4.697  0.3640 -0.2616 -0.5076
    5MOL   C165 1453   7.340   2.474   4.647 -0.6867 -0.3308 -0.2466
    5MOL  Cl166 1454   7.248   2.566   4.544 -0.1995  0.3038  0.0873
    5MOL   C167 1455   7.463   2.521   4.686 -0.2746  0.3123  0.5878
    5MOL   C168 1456   7.526   2.454   4.793 -0.0176 -0.6431  0.4782
    5MOL   C169 1457   7.469   2.337   4.848 -0.2351 -0.5321 -0.0139
    5MOL   C170 1458   7.168   2.165   4.909 -0.3914 -0.0814 -0.0908
    5MOL   H171 1459   7.377   2.089   4.904  0.5545  0.3470 -0.3920
    5MOL   H172 1460   7.204   2.314   4.646 -2.6554  1.8960  2.7754
    5MOL   H173 1461   7.501   2.614   4.648  0.2087  0.0195  0.3406
    5MOL   H174 1462   7.615   2.494   4.840 -0.0299  1.5535 -1.2949
    5MOL   H175 1463   7.535   2.290   4.919 -2.3223  0.4285  2.6290
    5MOL   H176 1464   7.097   2.184   4.829  0.8632  2.0837 -0.7154
    5MOL   H177 1465   7.129   2.072   4.952 -0.9135 -1.4026 -3.2722
    5MOL   C178 1466   7.163   2.282   5.006  0.5868 -0.2264 -0.3472
    5MOL   C179 1467   7.017   2.329   5.013 -0.1092  0.5064  0.6192
    5MOL   C180 1468   6.991   2.449   4.945  0.2566 -0.1323 -0.2454
    5MOL   C181 1469   6.868   2.513   4.957 -0.0254 -0.1245 -0.4671
    5MOL  Cl182 1470   6.839   2.658   4.870 -0.2227  0.2298 -0.1885
    5MOL   C183 1471   6.765   2.460   5.039  0.6829 -0.2672  0.1870
    5MOL   C184 1472   6.787   2.336   5.108 -0.0841  0.3901 -0.3699
    5MOL   C185 1473   6.915   2.272   5.092  0.5238  0.7279  0.2233
    5MOL   C186 1474   7.237   2.249   5.129  0.5254 -0.3141 -0.1947
    5MOL   H187 1475   7.215   2.369   4.965 -0.0112  0.3864  0.1798
    5MOL   H188 1476   7.070   2.488   4.882 -0.6580  0.1924 -1.2044
    5MOL   H189 1477   6.677   2.518   5.059  1.1905  0.1704  1.1844
    5MOL   H190 1478   6.720   2.299   5.184  1.0236  1.0083  0.9432
    5MOL   H191 1479   6.932   2.176   5.138 -0.1095  0.1086 -0.8083
    5MOL   H192 1480   7.172   2.177   5.178  1.4474 -0.4275  0.9063
    5MOL   H193 1481   7.334   2.200   5.116  0.3119 -1.1354  1.2567
    5MOL   C194 1482   7.267   2.361   5.230  0.1796 -0.5915  0.9567
    5MOL   C195 1483   7.310   2.308   5.363  0.3757 -0.0361  0.0009
    5MOL   C196 1484   7.428   2.234   5.380 -0.1178  0.1615  0.3688
    5MOL   C197 1485   7.475   2.214   5.511  0.6299  1.4340  0.0422
    5MOL  Cl198 1486   7.631   2.151   5.530 -0.1527 -0.2548  0.0049
    5MOL   C199 1487   7.405   2.251   5.623  0.3471  0.1832  0.2094
    5MOL   C200 1488   7.279   2.304   5.604 -0.0653  0.1472  0.5865
    5MOL   C201 1489   7.233   2.334   5.478  0.2691 -1.0165  0.5465
    5MOL   C202 1490   7.368   2.464   5.165  0.2452  0.1678 -0.6200
    5MOL   H203 1491   7.174   2.411   5.256 -1.5903 -3.6278  0.7023
    5MOL   H204 1492   7.496   2.207   5.300  1.9823  1.4749  1.6447
    5MOL   H205 1493   7.436   2.226   5.724  0.3028  3.5531  1.1365
    5MOL   H206 1494   7.215   2.323   5.689 -1.3957  0.0521 -0.3856
    5MOL   H207 1495   7.139   2.388   5.470 -0.0420 -1.6094  0.1876
    5MOL   H208 1496   7.448   2.404   5.123 -1.6703 -2.1654 -1.0570
    5MOL   H209 1497   7.318   2.514   5.082  2.4642  1.1105 -1.4330
    5MOL   C210 1498   7.434   2.565   5.262 -0.2309  0.5786  0.9779
    5MOL   C211 1499   7.554   2.631   5.199  0.3304 -0.4897 -0.3270
    5MOL   C212 1500   7.529   2.722   5.091  0.1257 -0.1583  0.5832
    5MOL   C213 1501   7.629   2.789   5.028  0.7255 -1.0663  0.1184
    5MOL  Cl214 1502   7.588   2.904   4.909 -0.1319 -0.0682  0.2645
    5MOL   C215 1503   7.761   2.760   5.065 -0.1203 -0.0965  0.4348
    5MOL   C216 1504   7.787   2.666   5.166 -0.2038 -0.7151  1.4324
    5MOL   C217 1505   7.683   2.604   5.238 -0.0169  0.5905  0.0459
    5MOL   C218 1506   7.333   2.666   5.317  0.2779  0.3588  0.5988
    5MOL   H219 1507   7.476   2.520   5.352 -0.2803  1.3927  1.4155
    5MOL   H220 1508   7.429   2.756   5.069 -0.1338 -1.7313 -0.7862
    5MOL   H221 1509   7.850   2.800   5.018  1.8164 -1.3509  2.8971
    5MOL   H222 1510   7.893   2.647   5.180  0.8429  1.3202 -2.6729
    5MOL   H223 1511   7.698   2.532   5.316 -0.8699 -0.3512 -0.6575
    5MOL   H224 1512   7.321   2.745   5.242  0.9538 -1.0783 -1.0645
    5MOL   H225 1513   7.242   2.606   5.327  0.2825  0.1808 -0.3906
    5MOL   C226 1514   7.369   2.738   5.451 -0.5258 -0.1436 -0.6797
    5MOL   C227 1515   7.310   2.880   5.444  0.8679 -0.7395  0.1205
    5MOL   C228 1516   7.381   2.995   5.417  0.6518 -0.0250 -0.0666
    5MOL   C229 1517   7.317   3.115   5.394 -0.1885 -0.4565 -0.1715
    5MOL  Cl230 1518   7.414   3.263   5.372  0.2867  0.4602  0.0112
    5MOL   C231 1519   7.181   3.120   5.386  0.6545 -0.4035 -0.3113
    5MOL   C232 1520   7.100   3.008   5.423  0.0436 -0.0718 -0.1615
    5MOL   C233 1521   7.173   2.886   5.448 -0.5722 -0.4443 -0.9008
    5MOL   C234 1522   7.325   2.657   5.577 -0.5716 -0.7685 -0.2530
    5MOL   H235 1523   7.477   2.751   5.454 -0.6266  0.3809  1.5195
    5MOL   H236 1524   7.488   3.000   5.403  0.6097 -0.6236 -0.6448
    5MOL   H237 1525   7.126   3.212   5.370 -0.5484 -0.9424  0.6726
    5MOL   H238 1526   6.992   3.007   5.431 -0.0881 -3.9254 -1.0224
    5MOL   H239 1527   7.124   2.793   5.469 -1.7246  0.0856 -1.2205
    5MOL   H240 1528   7.226   2.611   5.566  0.4461 -3.0625 -0.0523
    5MOL   H241 1529   7.389   2.571   5.595  1.7677  1.2514  1.3364
    5MOL   C242 1530   7.313   2.737   5.712  0.8826 -0.5762 -0.0206
    5MOL   C243 1531   7.266   2.656   5.830 -0.2743  0.2848 -0.0253
    5MOL   C244 1532   7.137   2.671   5.889 -0.4890 -0.3171  0.3566
    5MOL   C245 1533   7.093   2.578   5.985 -0.5185  0.4614 -0.0442
    5MOL  Cl246 1534   6.929   2.584   6.051 -0.4051  0.4259  0.3329
    5MOL   C247 1535   7.184   2.481   6.030  0.3613 -0.1710  0.0453
    5MOL   C248 1536   7.303   2.457   5.970 -0.8064 -0.3291 -0.1138
    5MOL   C249 1537   7.346   2.548   5.871  0.1235 -0.5782  0.4912
    5MOL   C250 1538   7.445   2.813   5.743 -0.3931  0.0653  0.6476
    5MOL   H251 1539   7.239   2.816   5.704  1.2813 -0.1401  0.5440
    5MOL   H252 1540   7.065   2.741   5.851 -2.0764 -2.0237  0.1487
    5MOL   H253 1541   7.139   2.413   6.102  0.5705 -0.2145  0.1364
    5MOL   H254 1542   7.369   2.375   5.993 -0.0848  0.2973  0.0721
    5MOL   H255 1543   7.439   2.522   5.822 -0.7226  1.2589 -2.1505
    5MOL   H256 1544   7.529   2.746   5.757  0.5650  0.5830 -2.3237
    5MOL   H257 1545   7.487   2.869   5.660  0.7489  0.3112  1.3774
    5MOL   C258 1546   7.439   2.922   5.860  0.3060  0.2700 -0.0174
    5MOL   C259 1547   7.528   2.862   5.970 -0.2250  0.2871 -0.3819
    5MOL   C260 1548   7.471   2.784   6.071 -0.4381  0.2011  0.4114
    5MOL   C261 1549   7.552   2.730   6.173 -0.5838 -0.6242 -0.0299
    5MOL  Cl262 1550   7.479   2.623   6.281 -0.0092 -0.1233  0.2018
    5MOL   C263 1551   7.690   2.758   6.187 -0.5567 -0.6680 -0.2091
    5MOL   C264 1552   7.749   2.844   6.091  0.6091  0.8921 -0.0217
    5MOL   C265 1553   7.666   2.891   5.982 -0.3304  0.6994  0.1139
    5MOL   C266 1554   7.465   3.058   5.813  0.1054 -0.1198 -0.0856
    5MOL   H267 1555   7.338   2.925   5.901 -0.6647  0.3197 -2.3192
    5MOL   H268 1556   7.367   2.756   6.063 -0.8990  2.4483 -2.2348
    5MOL   H269 1557   7.754   2.724   6.267  0.1033  0.1548 -0.3747
    5MOL   H270 1558   7.850   2.881   6.103  1.7043 -1.5340 -1.6071
    5MOL   H271 1559   7.711   2.956   5.909  0.0676 -1.7788 -1.9158
    5MOL   H272 1560   7.570   3.069   5.788 -0.0073  0.3955 -0.3380
    5MOL   H273 1561   7.413   3.077   5.719  1.9840  0.1680 -1.0880
    5MOL   C274 1562   7.427   3.178   5.907 -0.2404 -1.0180 -0.7209
    5MOL   C275 1563   7.452   3.314   5.845 -0.0797 -0.0444  0.3529
    5MOL   C276 1564   7.508   3.419   5.922 -0.4074  0.5491 -0.1512
    5MOL   C277 1565   7.533   3.546   5.861 -0.0762  0.9951  1.1456
    5MOL  Cl278 1566   7.586   3.677   5.955 -0.1651  0.0514  0.3379
    5MOL   C279 1567   7.505   3.568   5.730 -0.3486 -0.0432  0.2896
    5MOL   C280 1568   7.432   3.469   5.654 -0.1282  0.1892 -0.3568
    5MOL   C281 1569   7.406   3.345   5.717  0.1193 -0.7935  0.0166
    5MOL   C282 1570   7.282   3.175   5.972  0.4070 -0.1858  0.6014
    5MOL   H283 1571   7.497   3.165   5.989 -1.7509 -0.6507  0.6630
    5MOL   H284 1572   7.523   3.406   6.028 -0.4482 -1.3121 -0.3641
    5MOL   H285 1573   7.530   3.659   5.678  2.2818 -2.3993 -2.7692
    5MOL   H286 1574   7.392   3.485   5.555 -0.9001 -1.9002 -0.4031
    5MOL   H287 1575   7.356   3.271   5.656 -1.5153  1.9357 -2.0293
    5MOL   H288 1576   7.251   3.280   5.981  0.7743 -0.1407  1.3943
    5MOL   H289 1577   7.217   3.124   5.901  1.5135 -0.0583 -0.5179
    5MOL   C290 1578   7.267   3.114   6.111 -0.0457 -0.1639  0.3974
    5MOL   C291 1579   7.351   3.193   6.209  0.4004 -0.4743 -0.4858
    5MOL   C292 1580   7.461   3.138   6.275  0.2398  0.0552 -0.0948
    5MOL   C293 1581   7.543   3.216   6.366 -0.0853 -0.5159 -0.4832
    5MOL  Cl294 1582   7.667   3.137   6.463 -0.2025 -0.3953 -0.0632
    5MOL   C295 1583   7.514   3.352   6.379  0.1228 -0.0618 -0.5160
    5MOL   C296 1584   7.409   3.413   6.308  0.3954  0.0736  0.1393
    5MOL   C297 1585   7.325   3.334   6.234 -0.6082  0.1220  0.2994
    5MOL   C298 1586   7.121   3.110   6.156  0.1709  0.0496  0.0753
    5MOL   H299 1587   7.292   3.008   6.102 -0.2655 -0.0866 -1.4351
    5MOL   H300 1588   7.481   3.033   6.260 -3.7269 -1.2040  2.6224
    5MOL   H301 1589   7.575   3.414   6.443  0.9528  1.1575 -2.4284
    5MOL   H302 1590   7.398   3.521   6.309  0.0512  0.0420  1.3958
    5MOL   H303 1591   7.243   3.386   6.187 -0.6550 -1.4630 -1.4567
    5MOL   H304 1592   7.077   3.208   6.177  0.0721  0.1388 -0.5376
    5MOL   H305 1593   7.070   3.062   6.073  2.9958 -0.2623 -1.5190
    5MOL   C306 1594   7.099   3.020   6.282  0.2149 -0.4926  0.3355
    5MOL   C307 1595   7.112   3.106   6.411  0.1568  0.0661  0.1892
    5MOL   C308 1596   7.015   3.206   6.450  0.2754  0.0217 -0.2454
    5MOL   C309 1597   7.036   3.293   6.562  0.5085 -0.6185  0.1164
    5MOL  Cl310 1598   6.927   3.416   6.607 -0.1269 -0.2153 -0.1991
    5MOL   C311 1599   7.154   3.281   6.636 -0.1055 -0.6698 -0.5193
    5MOL   C312 1600   7.254   3.190   6.600 -1.1866 -0.1644  0.2469
    5MOL   C313 1601   7.224   3.101   6.493  0.0658  0.3314 -0.1802
    5MOL   C314 1602   6.965   2.947   6.287  0.1933 -0.5709 -0.4918
    5MOL   H315 1603   7.176   2.943   6.286 -0.4260 -1.1523  0.2503
    5MOL   H316 1604   6.927   3.219   6.389  0.3725  2.2845  0.0819
    5MOL   H317 1605   7.179   3.358   6.708 -0.4027  1.2278 -2.3991
    5MOL   H318 1606   7.352   3.177   6.643 -1.1077  1.1320  0.4862
    5MOL   H319 1607   7.295   3.023   6.468 -0.7147  0.1499 -1.8671
    5MOL   H320 1608   6.881   3.015   6.273 -0.8123 -1.8303 -0.6512
    5MOL   H321 1609   6.968   2.876   6.205 -1.1607 -0.2630 -0.8115
    5MOL   H322 1610   6.952   2.898   6.383 -1.3047 -1.1407 -0.9830
    6MOL     C1 1611   6.217   2.246   5.173  0.2338 -0.8552 -0.4746
    6MOL     C2 1612   6.144   2.377   5.188  0.3780  0.1395  0.4039
    6MOL     C3 1613   6.191   2.473   5.275  0.3457  0.2720 -0.8964
    6MOL     C4 1614   6.135   2.603   5.285  0.4994  0.3253  0.0857
    6MOL    Cl5 1615   6.219   2.721   5.378  0.1007  0.0191 -0.2255
    6MOL     C6 1616   6.031   2.630   5.191  0.2248 -0.0660  0.0357
    6MOL     C7 1617   5.973   2.524   5.111  0.4385 -0.0485 -0.1849
    6MOL     C8 1618   6.031   2.397   5.105  0.7037 -0.3592 -0.1604
    6MOL     C9 1619   6.331   2.249   5.068  0.9980 -0.4920 -0.4161
    6MOL    H10 1620   6.145   2.168   5.151 -2.0341  0.7113  1.1480
    6MOL    H11 1621   6.279   2.444   5.331  1.0364  3.2852 -0.3699
    6MOL    H12 1622   6.007   2.735   5.179  0.4848 -0.0374 -0.2242
    6MOL    H13 1623   5.899   2.542   5.034  1.4952 -0.2563 -1.2598
    6MOL    H14 1624   5.992   2.325   5.035 -1.2410 -0.0570  0.5925
    6MOL    H15 1625   6.289   2.295   4.979 -3.4235 -1.9286  0.8201
    6MOL    H16 1626   6.409   2.320   5.096 -0.5410  1.1597 -0.2825
    6MOL    H17 1627   6.248   2.216   5.273 -0.2811  2.1006  0.6237
    6MOL    C18 1628   6.386   2.108   5.036  0.2360  0.2770  0.2828
    6MOL    C19 1629   6.281   2.002   5.001 -0.2559  0.2792 -0.0117
    6MOL    C20 1630   6.294   1.869   5.038  0.7174  0.3644 -0.3172
    6MOL    C21 1631   6.206   1.772   4.991  0.1584 -0.2325  0.2413
    6MOL   Cl22 1632   6.229   1.611   5.049  0.2223 -0.2409  0.0940
    6MOL    C23 1633   6.100   1.809   4.906  0.3360 -0.2339  0.0129
    6MOL    C24 1634   6.074   1.945   4.885 -0.0396  0.6901  0.0886
    6MOL    C25 1635   6.169   2.038   4.922 -0.4452 -1.0097  0.5203
    6MOL    C26 1636   6.491   2.126   4.927  0.4988 -0.0259  0.0886
    6MOL    H27 1637   6.426   2.069   5.130 -1.9108  1.4311  1.6982
    6MOL    H28 1638   6.378   1.827   5.091 -0.0210 -2.5691 -1.3364
    6MOL    H29 1639   6.029   1.735   4.871 -0.5871 -1.0072  3.3591
    6MOL    H30 1640   5.988   1.974   4.827 -1.1032 -1.6473  0.4137
    6MOL    H31 1641   6.155   2.139   4.885 -0.0191 -1.8603 -2.0743
    6MOL    H32 1642   6.428   2.142   4.840 -0.6461  0.0468  0.9173
    6MOL    H33 1643   6.559   2.209   4.946 -1.0559  1.4863 -0.8296
    6MOL    C34 1644   6.575   2.003   4.896  0.4472 -0.4154  0.0455
    6MOL    C35 1645   6.640   2.029   4.764 -0.6770  0.6002 -0.0119
    6MOL    C36 1646   6.750   2.121   4.751  0.0871 -0.1856  0.0796
    6MOL    C37 1647   6.794   2.173   4.626 -0.1123  0.0751  0.3925
    6MOL   Cl38 1648   6.917   2.291   4.605  0.1347 -0.2277  0.1042
    6MOL    C39 1649   6.740   2.123   4.510  0.1212 -0.6735 -0.0344
    6MOL    C40 1650   6.636   2.028   4.518  0.1439  0.2212  0.3190
    6MOL    C41 1651   6.589   1.983   4.640 -0.0772  0.3109 -0.3180
    6MOL    C42 1652   6.663   1.969   5.013 -1.8030 -0.8086  0.0394
    6MOL    H43 1653   6.500   1.929   4.871  1.0084 -1.5682  1.7097
    6MOL    H44 1654   6.798   2.157   4.841 -0.4316 -2.8605  1.4678
    6MOL    H45 1655   6.779   2.161   4.416 -2.7521  2.9006  0.1258
    6MOL    H46 1656   6.608   1.973   4.429  1.7289 -0.4550  0.2232
    6MOL    H47 1657   6.509   1.911   4.646  1.2855 -1.1457  1.1469
    6MOL    H48 1658   6.710   2.062   5.045 -1.0356 -1.1282 -0.1468
    6MOL    H49 1659   6.606   1.933   5.099 -0.0611 -0.5399  1.3307
    6MOL    C50 1660   6.776   1.867   4.983  0.6853 -0.8162 -0.2983
    6MOL    C51 1661   6.867   1.841   5.104  0.4561 -0.0320  0.1580
    6MOL    C52 1662   7.004   1.845   5.083  0.0394 -0.6292 -0.1118
    6MOL    C53 1663   7.098   1.820   5.189  0.1317  0.1608 -0.3283
    6MOL   Cl54 1664   7.271   1.827   5.169 -0.1155 -0.2147 -0.0175
    6MOL    C55 1665   7.038   1.781   5.312  0.3084  0.0999 -0.7331
    6MOL    C56 1666   6.898   1.761   5.328  0.6888  0.5183  0.0379
    6MOL    C57 1667   6.813   1.790   5.223  0.7931  0.3369 -0.7441
    6MOL    C58 1668   6.729   1.734   4.932  0.1640 -0.3893  0.6014
    6MOL    H59 1669   6.840   1.909   4.906  1.4717  1.4121  1.4944
    6MOL    H60 1670   7.035   1.882   4.987 -2.1543 -1.2203 -1.0702
    6MOL    H61 1671   7.108   1.770   5.394  1.0049  0.4847 -1.2744
    6MOL    H62 1672   6.853   1.725   5.419 -0.4432 -0.4540 -0.8864
    6MOL    H63 1673   6.706   1.780   5.234  1.0204 -0.4249  0.9317
    6MOL    H64 1674   6.761   1.651   4.995 -0.4451  0.6197  2.2673
    6MOL    H65 1675   6.622   1.733   4.950  0.1832  0.1870  0.7610
    6MOL    C66 1676   6.764   1.697   4.785  0.0552  0.1456 -0.2143
    6MOL    C67 1677   6.908   1.638   4.779 -0.1738  0.0669 -0.7086
    6MOL    C68 1678   6.942   1.514   4.840  0.5661  0.3756  0.5739
    6MOL    C69 1679   7.077   1.468   4.843 -0.0731  0.1047 -0.0928
    6MOL   Cl70 1680   7.115   1.316   4.919  0.0921  0.1224 -0.0846
    6MOL    C71 1681   7.178   1.537   4.776  0.6016 -0.2351  0.3099
    6MOL    C72 1682   7.143   1.660   4.721 -1.1512 -0.0434 -0.3943
    6MOL    C73 1683   7.009   1.712   4.722 -0.3556 -0.5049 -0.3683
    6MOL    C74 1684   6.654   1.601   4.724 -0.5571 -0.5364  0.4544
    6MOL    H75 1685   6.745   1.792   4.735 -1.7488 -0.1000 -0.0267
    6MOL    H76 1686   6.869   1.446   4.882  0.8147 -0.4851 -0.3628
    6MOL    H77 1687   7.279   1.499   4.773  0.8865  0.2823  2.8946
    6MOL    H78 1688   7.228   1.714   4.683 -0.9934  0.6926  0.9289
    6MOL    H79 1689   6.996   1.814   4.688  0.2273 -0.5279 -0.6641
    6MOL    H80 1690   6.692   1.500   4.733 -0.5063 -0.5437  0.1497
    6MOL    H81 1691   6.561   1.610   4.780  0.0260  0.1380  1.3339
    6MOL    C82 1692   6.624   1.602   4.577 -0.2462  0.2413  0.0434
    6MOL    C83 1693   6.749   1.598   4.484 -0.2647 -0.2074 -0.0497
    6MOL    C84 1694   6.795   1.721   4.438  0.3981 -0.4227 -0.1270
    6MOL    C85 1695   6.913   1.735   4.369  0.5049  0.2165 -0.5492
    6MOL   Cl86 1696   6.971   1.888   4.312  0.4737  0.3788  0.4086
    6MOL    C87 1697   6.990   1.623   4.344  0.1758 -0.8370  0.3268
    6MOL    C88 1698   6.952   1.500   4.392  0.0064 -0.2203 -0.1994
    6MOL    C89 1699   6.829   1.484   4.452  0.6550 -0.2354  0.9396
    6MOL    C90 1700   6.528   1.489   4.539  0.5779 -0.7196 -0.0104
    6MOL    H91 1701   6.572   1.695   4.557 -0.3414 -0.3404 -2.5885
    6MOL    H92 1702   6.729   1.806   4.448 -2.6753 -2.5777 -1.3493
    6MOL    H93 1703   7.086   1.638   4.296 -0.0245  3.1965  1.0494
    6MOL    H94 1704   7.011   1.415   4.361 -1.1281 -1.0275 -0.2129
    6MOL    H95 1705   6.793   1.384   4.471 -0.6336  0.1472  0.5640
    6MOL    H96 1706   6.516   1.491   4.431 -1.7841 -1.2183  0.2114
    6MOL    H97 1707   6.577   1.393   4.557  1.9323 -0.4185 -1.9408
    6MOL    C98 1708   6.389   1.492   4.588  0.1981 -0.0268 -0.1927
    6MOL    C99 1709   6.304   1.606   4.541  0.1400 -1.0829  0.5098
    6MOL   C100 1710   6.230   1.604   4.421  0.2353 -0.1847 -0.0329
    6MOL   C101 1711   6.142   1.710   4.387 -0.2385 -0.4389 -0.1030
    6MOL  Cl102 1712   6.055   1.700   4.241 -0.5046  0.0084 -0.3449
    6MOL   C103 1713   6.124   1.816   4.479  0.0810  0.1827  0.5141
    6MOL   C104 1714   6.194   1.818   4.599 -0.0591 -0.9176 -0.2949
    6MOL   C105 1715   6.283   1.718   4.628  0.5834  0.0759 -0.5263
    6MOL   C106 1716   6.318   1.357   4.580 -0.5778  0.9075 -0.1377
    6MOL   H107 1717   6.396   1.511   4.695 -2.8785  0.5225 -0.0651
    6MOL   H108 1718   6.239   1.526   4.346 -0.9416  0.2270 -0.6171
    6MOL   H109 1719   6.058   1.895   4.447 -0.5744 -0.8119 -0.6406
    6MOL   H110 1720   6.173   1.900   4.666 -2.3736 -0.3574 -1.6427
    6MOL   H111 1721   6.335   1.720   4.723 -1.5987  1.8663  0.6883
    6MOL   H112 1722   6.215   1.376   4.611 -0.5106 -0.3436  0.8889
    6MOL   H113 1723   6.302   1.333   4.475 -0.9136 -1.3371  0.3965
    6MOL   C114 1724   6.379   1.237   4.666 -0.2409 -0.1697  0.9350
    6MOL   C115 1725   6.301   1.194   4.788  0.0795  0.1856 -0.7316
    6MOL   C116 1726   6.177   1.123   4.779  0.4003 -0.2582  0.0522
    6MOL   C117 1727   6.101   1.090   4.889  0.7680  0.1130  0.1072
    6MOL  Cl118 1728   5.962   0.992   4.875  0.1183  0.2149 -0.4354
    6MOL   C119 1729   6.140   1.139   5.015  0.3914  0.7861 -0.0809
    6MOL   C120 1730   6.257   1.211   5.028 -0.7807  0.0443 -0.4820
    6MOL   C121 1731   6.341   1.232   4.918 -0.0014 -0.3736 -0.1690
    6MOL   C122 1732   6.401   1.120   4.572  0.0980  0.3831  0.1373
    6MOL   H123 1733   6.479   1.265   4.702  0.6803 -1.2907 -0.7018
    6MOL   H124 1734   6.141   1.100   4.680 -1.3203  0.7878  0.4236
    6MOL   H125 1735   6.081   1.127   5.105  0.1108  1.1454 -0.2112
    6MOL   H126 1736   6.299   1.252   5.119 -1.0362 -2.3699  0.7697
    6MOL   H127 1737   6.429   1.293   4.932  0.5057 -0.6262 -2.1497
    6MOL   H128 1738   6.415   1.035   4.638  0.7611  1.0682  0.8885
    6MOL   H129 1739   6.304   1.116   4.523 -0.2145 -1.6114  0.8613
    6MOL   C130 1740   6.513   1.122   4.471 -0.6781 -0.3620 -0.1807
    6MOL   C131 1741   6.660   1.123   4.526 -0.0353 -0.1127  0.2028
    6MOL   C132 1742   6.770   1.116   4.442  1.0906 -0.4378  0.9596
    6MOL   C133 1743   6.904   1.129   4.489  0.2526 -0.1855 -0.6302
    6MOL  Cl134 1744   7.035   1.116   4.371  0.1041  0.1169 -0.1212
    6MOL   C135 1745   6.920   1.134   4.628  0.6557 -0.4041 -0.0751
    6MOL   C136 1746   6.810   1.130   4.715  0.7498 -0.6139  0.2378
    6MOL   C137 1747   6.683   1.120   4.664 -0.1014  0.0672  0.4893
    6MOL   C138 1748   6.485   1.010   4.370 -0.1818 -0.7438  0.7464
    6MOL   H139 1749   6.501   1.221   4.428 -0.6463  0.9586  2.7159
    6MOL   H140 1750   6.762   1.094   4.337 -0.4065 -0.3080  1.0344
    6MOL   H141 1751   7.021   1.123   4.663  0.1605 -1.3561  1.0795
    6MOL   H142 1752   6.819   1.110   4.821  0.9784 -1.0300  0.1442
    6MOL   H143 1753   6.599   1.104   4.730  0.1007 -2.8316  0.1455
    6MOL   H144 1754   6.568   1.013   4.300  0.3007 -1.6655  1.2695
    6MOL   H145 1755   6.482   0.920   4.432  1.7274  0.7471  3.0904
    6MOL   C146 1756   6.354   1.026   4.284 -0.0403  0.0236  0.0195
    6MOL   C147 1757   6.335   1.164   4.217  0.1157  0.1828 -0.6971
    6MOL   C148 1758   6.428   1.224   4.127  0.3765  0.5518  0.1295
    6MOL   C149 1759   6.402   1.349   4.071  0.2358 -0.6344  0.6217
    6MOL  Cl150 1760   6.522   1.431   3.967  0.5852 -0.4321 -0.7141
    6MOL   C151 1761   6.284   1.419   4.099 -0.3896  0.4600  0.4088
    6MOL   C152 1762   6.181   1.357   4.181  0.5215 -0.1676  0.1761
    6MOL   C153 1763   6.211   1.231   4.247 -0.8815  0.7198  0.2667
    6MOL   C154 1764   6.331   0.909   4.189 -0.0855 -0.3763 -0.1260
    6MOL   H155 1765   6.266   1.025   4.348  0.1582  0.0648  0.2929
    6MOL   H156 1766   6.526   1.184   4.103  0.5150  1.5156 -0.9051
    6MOL   H157 1767   6.268   1.512   4.045  1.7997  1.1651  0.9046
    6MOL   H158 1768   6.084   1.398   4.205  0.6091 -1.4264  2.7893
    6MOL   H159 1769   6.137   1.185   4.310 -0.3834 -0.3862  0.0613
    6MOL   H160 1770   6.272   0.943   4.104 -0.7839  0.1046  0.5516
    6MOL   H161 1771   6.428   0.891   4.142  0.6970  0.2193  1.2334
    6MOL   C162 1772   6.278   0.781   4.255 -0.1776  0.0079 -0.2143
    6MOL   C163 1773   6.125   0.799   4.284  0.0899  0.2548 -0.3347
    6MOL   C164 1774   6.079   0.778   4.414  0.0356 -0.6372  0.0111
    6MOL   C165 1775   5.947   0.786   4.444  0.6025 -0.1814 -0.1594
    6MOL  Cl166 1776   5.904   0.788   4.612  0.0577  0.3075 -0.0379
    6MOL   C167 1777   5.850   0.801   4.340 -0.0740 -0.6323 -0.7280
    6MOL   C168 1778   5.890   0.812   4.202  0.2594  0.0628 -0.4715
    6MOL   C169 1779   6.027   0.805   4.182 -0.5307 -0.1033 -0.1293
    6MOL   C170 1780   6.298   0.655   4.171  0.0106  0.2763  0.6130
    6MOL   H171 1781   6.328   0.777   4.351 -0.7038  2.0749  0.1659
    6MOL   H172 1782   6.138   0.764   4.503 -1.5011 -1.9227  0.8411
    6MOL   H173 1783   5.745   0.797   4.365  0.2674  2.6091  1.4932
    6MOL   H174 1784   5.808   0.816   4.132  0.0849 -3.1681 -0.5094
    6MOL   H175 1785   6.052   0.816   4.077 -0.1404 -0.1956 -0.0470
    6MOL   H176 1786   6.224   0.576   4.183 -0.4849  0.8459  1.3954
    6MOL   H177 1787   6.292   0.677   4.064  0.3537 -1.3698  0.2433
    6MOL   C178 1788   6.446   0.608   4.197 -0.9442  0.5258 -0.3949
    6MOL   C179 1789   6.485   0.575   4.339 -0.7099 -0.2544  0.0289
    6MOL   C180 1790   6.606   0.628   4.390 -0.3441  0.4778 -0.2532
    6MOL   C181 1791   6.636   0.602   4.525 -0.3048 -0.0753 -0.5328
    6MOL  Cl182 1792   6.772   0.674   4.600 -0.2169 -0.1080 -0.3559
    6MOL   C183 1793   6.551   0.525   4.608  0.3701 -0.4324 -0.1704
    6MOL   C184 1794   6.428   0.476   4.558 -0.0993  0.5568  0.5658
    6MOL   C185 1795   6.394   0.499   4.422  0.4843 -0.7682 -0.1935
    6MOL   C186 1796   6.493   0.506   4.094  0.0032 -0.4568 -0.2796
    6MOL   H187 1797   6.504   0.698   4.173  1.7243 -1.1587 -0.4276
    6MOL   H188 1798   6.683   0.683   4.338  1.2336 -1.5072 -0.0489
    6MOL   H189 1799   6.561   0.514   4.715 -0.1300 -0.2573 -0.1018
    6MOL   H190 1800   6.366   0.415   4.622 -1.0078  1.8565  0.9553
    6MOL   H191 1801   6.298   0.463   4.388  1.1642  0.0227 -3.0299
    6MOL   H192 1802   6.570   0.442   4.137  1.1007  0.2921 -1.1220
    6MOL   H193 1803   6.402   0.450   4.075  0.0194 -0.1621 -1.2399
    6MOL   C194 1804   6.551   0.558   3.967  0.6982  0.3698  0.0056
    6MOL   C195 1805   6.674   0.637   4.001  0.4578 -0.4984  0.1366
    6MOL   C196 1806   6.789   0.575   4.055 -0.0160 -0.5423  0.0107
    6MOL   C197 1807   6.900   0.654   4.096  0.0648  0.2717 -0.2444
    6MOL  Cl198 1808   7.039   0.588   4.174 -0.0784  0.5657  0.0161
    6MOL   C199 1809   6.896   0.792   4.083 -0.3403  0.3318  0.1834
    6MOL   C200 1810   6.783   0.853   4.029  1.2353 -0.2617  0.0811
    6MOL   C201 1811   6.673   0.775   3.984  0.8125  0.2169  0.1698
    6MOL   C202 1812   6.567   0.449   3.851  0.1859 -0.1439 -1.0489
    6MOL   H203 1813   6.477   0.632   3.935 -1.2820 -1.3989  0.4386
    6MOL   H204 1814   6.803   0.470   4.073 -0.9556 -0.8673 -1.1281
    6MOL   H205 1815   6.985   0.846   4.111 -0.5267  1.5521 -1.5518
    6MOL   H206 1816   6.778   0.961   4.023 -2.7106 -0.3822 -0.4561
    6MOL   H207 1817   6.589   0.833   3.950  0.2988 -1.7357 -1.9924
    6MOL   H208 1818   6.609   0.352   3.878  1.9154  0.5629 -1.1181
    6MOL   H209 1819   6.469   0.422   3.812  0.2085 -1.9438  0.0642
    6MOL   C210 1820   6.651   0.511   3.734 -0.1453 -0.1496  0.6754
    6MOL   C211 1821   6.687   0.396   3.635  0.0092 -0.3497  0.0063
    6MOL   C212 1822   6.791   0.305   3.660 -0.3167 -0.4337  0.5962
    6MOL   C213 1823   6.817   0.201   3.572  0.0366  0.2134  0.2652
    6MOL  Cl214 1824   6.929   0.077   3.598 -0.3640  0.1556 -0.1071
    6MOL   C215 1825   6.748   0.190   3.450 -0.3843  0.4911 -0.0192
    6MOL   C216 1826   6.636   0.274   3.426 -0.2069 -0.3810 -0.8992
    6MOL   C217 1827   6.610   0.378   3.514 -0.0272  0.4986 -1.0377
    6MOL   C218 1828   6.570   0.626   3.678  0.2018  0.0634 -0.4787
    6MOL   H219 1829   6.745   0.554   3.769  1.2094 -1.9967 -0.6101
    6MOL   H220 1830   6.839   0.305   3.757 -1.9365 -0.1475  1.4132
    6MOL   H221 1831   6.771   0.103   3.389  0.9541  0.6412  0.2525
    6MOL   H222 1832   6.578   0.269   3.335  0.7962 -1.8121 -1.4669
    6MOL   H223 1833   6.526   0.443   3.494  0.9687  1.4805 -2.1193
    6MOL   H224 1834   6.476   0.579   3.648  0.6139 -0.3159 -1.1842
    6MOL   H225 1835   6.545   0.705   3.749  1.9379  0.1495  0.0367
    6MOL   C226 1836   6.628   0.708   3.554 -0.5067  0.2464  0.3790
    6MOL   C227 1837   6.526   0.799   3.494 -0.6046 -0.8390  0.2831
    6MOL   C228 1838   6.460   0.893   3.580 -0.8505 -0.1918 -0.1938
    6MOL   C229 1839   6.371   0.985   3.519 -0.1761 -0.5385  0.1960
    6MOL  Cl230 1840   6.301   1.111   3.619  0.2771 -0.1485 -0.1208
    6MOL   C231 1841   6.343   0.977   3.379  0.4060  0.1988  0.8832
    6MOL   C232 1842   6.391   0.875   3.299 -0.2344  0.9023 -0.4954
    6MOL   C233 1843   6.491   0.788   3.354 -0.0598 -0.1902 -0.6686
    6MOL   C234 1844   6.754   0.787   3.588  1.4116  0.6523 -0.1110
    6MOL   H235 1845   6.644   0.635   3.475 -0.2433 -0.7401  1.3330
    6MOL   H236 1846   6.489   0.907   3.683 -1.1781  1.3445 -0.3072
    6MOL   H237 1847   6.271   1.040   3.330  1.0682  0.6754  0.5257
    6MOL   H238 1848   6.361   0.862   3.196  0.0487 -0.6702 -0.3932
    6MOL   H239 1849   6.543   0.719   3.288 -0.9171 -0.5779 -0.9549
    6MOL   H240 1850   6.769   0.873   3.522  0.0016  1.0908  0.1249
    6MOL   H241 1851   6.743   0.848   3.677  3.4067 -3.1136  2.8350
    6MOL   C242 1852   6.890   0.715   3.588  0.1902 -0.1322  0.3417
    6MOL   C243 1853   6.922   0.680   3.440  0.0801  0.2461  0.0237
    6MOL   C244 1854   6.932   0.550   3.401 -0.4633 -0.2563  0.3361
    6MOL   C245 1855   6.980   0.508   3.272  1.1942  0.3264  0.2573
    6MOL  Cl246 1856   7.000   0.338   3.250  0.3061  0.1607  0.1705
    6MOL   C247 1857   7.018   0.605   3.175  0.5078  0.4625 -0.0592
    6MOL   C248 1858   7.009   0.737   3.216  0.6068  0.3803  0.0804
    6MOL   C249 1859   6.962   0.780   3.344 -0.1198 -0.2531  0.1640
    6MOL   C250 1860   7.007   0.793   3.665 -0.1109 -0.3241 -0.5550
    6MOL   H251 1861   6.874   0.620   3.640  1.4039 -1.6176 -1.9136
    6MOL   H252 1862   6.908   0.484   3.484 -0.8849 -0.7305 -0.1597
    6MOL   H253 1863   7.029   0.576   3.071 -2.3256  1.7053 -0.7658
    6MOL   H254 1864   7.031   0.818   3.149  2.1546  0.8244  1.0999
    6MOL   H255 1865   6.974   0.883   3.372 -3.0253  0.3891 -0.7759
    6MOL   H256 1866   7.031   0.888   3.618  0.3907 -1.5290 -2.7821
    6MOL   H257 1867   6.978   0.816   3.768  1.3945 -4.4182  0.8903
    6MOL   C258 1868   7.148   0.738   3.684  0.8560  0.0577  0.2777
    6MOL   C259 1869   7.237   0.840   3.754 -0.0066 -0.0117  0.0945
    6MOL   C260 1870   7.235   0.836   3.894  0.2268 -0.0494 -0.0854
    6MOL   C261 1871   7.315   0.920   3.968  0.0280  0.2736 -0.7988
    6MOL  Cl262 1872   7.311   0.907   4.139  0.0628 -0.5544 -0.6001
    6MOL   C263 1873   7.402   1.010   3.900 -0.8216 -0.5528  1.0138
    6MOL   C264 1874   7.406   1.011   3.758  0.1376 -0.2118 -0.4858
    6MOL   C265 1875   7.329   0.918   3.681  0.8753  0.5347  0.1684
    6MOL   C266 1876   7.154   0.585   3.724 -0.1477  0.0570  0.4197
    6MOL   H267 1877   7.182   0.746   3.580 -0.8882  4.3598 -0.0789
    6MOL   H268 1878   7.166   0.774   3.948  0.6433  0.9683  1.6521
    6MOL   H269 1879   7.453   1.088   3.954 -0.0674  0.5278 -1.1850
    6MOL   H270 1880   7.472   1.079   3.706  1.3109 -1.4822 -0.6662
    6MOL   H271 1881   7.336   0.919   3.573  2.4154 -0.2458  0.2465
    6MOL   H272 1882   7.126   0.579   3.830 -1.7207  2.3862  0.1756
    6MOL   H273 1883   7.075   0.531   3.672 -0.7768 -1.6470  3.0173
    6MOL   C274 1884   7.281   0.505   3.692 -0.0979 -0.2703  0.2421
    6MOL   C275 1885   7.400   0.558   3.769  0.1460 -0.4158  0.4237
    6MOL   C276 1886   7.518   0.591   3.697  0.1042 -0.1634  0.3787
    6MOL   C277 1887   7.625   0.652   3.762 -0.3365  0.6379  0.6716
    6MOL  Cl278 1888   7.765   0.716   3.678  0.1301  0.3145 -0.0334
    6MOL   C279 1889   7.619   0.658   3.902  0.2442 -0.2271 -0.4663
    6MOL   C280 1890   7.503   0.616   3.972  0.4513 -0.6644 -0.2274
    6MOL   C281 1891   7.396   0.568   3.908  0.8277  0.8707  0.4664
    6MOL   C282 1892   7.275   0.355   3.701  0.4454  0.4767 -0.0493
    6MOL   H283 1893   7.294   0.533   3.588  0.3890 -1.1533  0.0610
    6MOL   H284 1894   7.527   0.584   3.590 -5.1896 -0.6991 -0.2053
    6MOL   H285 1895   7.703   0.694   3.960  1.1560  0.1765 -2.0049
    6MOL   H286 1896   7.498   0.638   4.078  0.8478 -1.6516  0.0013
    6MOL   H287 1897   7.306   0.544   3.962  0.5523  0.5593 -0.1253
    6MOL   H288 1898   7.293   0.327   3.805 -0.6534  1.6076  0.4507
    6MOL   H289 1899   7.176   0.315   3.679  0.1862  0.6904  0.6947
    6MOL   C290 1900   7.376   0.285   3.610 -0.1642  0.4065 -0.2493
    6MOL   C291 1901   7.403   0.142   3.658  0.0562  0.1293 -0.1756
    6MOL   C292 1902   7.305   0.037   3.650 -0.1336 -0.3660  0.7017
    6MOL   C293 1903   7.324   8.342   3.698 -0.3436  0.3061 -0.0217
    6MOL  Cl294 1904   7.192   8.226   3.695 -0.3550  0.2913 -0.3873
    6MOL   C295 1905   7.453   8.305   3.747 -0.6370 -0.1861  0.5867
    6MOL   C296 1906   7.552   8.403   3.748 -0.0460  0.2923 -0.1256
    6MOL   C297 1907   7.532   0.101   3.708  0.3515 -0.1323 -0.0440
    6MOL   C298 1908   7.344   0.283   3.457  1.0695 -0.4411  0.2735
    6MOL   H299 1909   7.471   0.338   3.618 -0.9261  1.5206  1.7395
    6MOL   H300 1910   7.208   0.057   3.609 -0.2299 -0.5823  0.8231
    6MOL   H301 1911   7.485   8.209   3.784 -0.7610  0.1544  1.5886
    6MOL   H302 1912   7.648   8.370   3.783 -1.0689 -2.2436  0.4148
    6MOL   H303 1913   7.620   0.163   3.715  0.2134  0.1570 -0.7446
    6MOL   H304 1914   7.251   0.229   3.441 -0.9768  2.8311  0.8418
    6MOL   H305 1915   7.313   0.383   3.428 -0.4271 -1.0517 -0.2730
    6MOL   C306 1916   7.460   0.231   3.360 -0.2390 -0.4300 -0.5535
    6MOL   C307 1917   7.406   0.203   3.224  0.2277  0.3072  0.6136
    6MOL   C308 1918   7.323   0.296   3.169 -0.0097  0.2805  0.2532
    6MOL   C309 1919   7.261   0.265   3.047  0.3329  0.2255  0.6621
    6MOL  Cl310 1920   7.181   0.386   2.958  0.3724 -0.1659 -0.0071
    6MOL   C311 1921   7.261   0.129   3.004  0.4477 -0.2101  0.0159
    6MOL   C312 1922   7.346   0.038   3.058 -0.0412 -0.6588 -0.7121
    6MOL   C313 1923   7.420   0.074   3.174  0.4499  0.2453 -0.5483
    6MOL   C314 1924   7.593   0.306   3.362  0.3664  0.4774 -0.5436
    6MOL   H315 1925   7.491   0.133   3.395 -1.6543 -0.2752  1.2120
    6MOL   H316 1926   7.310   0.397   3.204 -3.8981 -0.2897  0.7023
    6MOL   H317 1927   7.206   0.091   2.919  1.3114  0.9879 -1.1174
    6MOL   H318 1928   7.340   8.374   3.015 -1.0546 -1.9821  2.3055
    6MOL   H319 1929   7.484   8.434   3.216  0.1006  1.3474  2.0129
    6MOL   H320 1930   7.586   0.413   3.342  2.4074  0.6028 -0.7006
    6MOL   H321 1931   7.636   0.289   3.461  2.9768 -1.6717 -2.0035
    6MOL   H322 1932   7.663   0.251   3.299  1.7118  0.3321  1.0428
    7MOL     C1 1933   7.479   7.165   0.474 -0.5382  0.2558  0.2824
    7MOL     C2 1934   7.487   7.305   0.524  0.0647  0.2233 -0.3641
    7MOL     C3 1935   7.526   7.411   0.436  0.4298 -0.1833 -0.2668
    7MOL     C4 1936   7.538   7.540   0.488  0.1052  0.5193 -0.3963
    7MOL    Cl5 1937   7.576   7.685   0.401 -0.1730 -0.1993 -0.6890
    7MOL     C6 1938   7.520   7.563   0.628 -0.0333  0.3545  0.3926
    7MOL     C7 1939   7.482   7.459   0.714  0.1843  0.0097 -0.5275
    7MOL     C8 1940   7.472   7.332   0.654  0.3369  0.2548  0.1275
    7MOL     C9 1941   7.607   7.093   0.498  0.0502  0.0522  0.3846
    7MOL    H10 1942   7.475   7.174   0.366  3.1693 -1.3036 -0.0767
    7MOL    H11 1943   7.532   7.395   0.329 -1.0881  0.7647 -0.5133
    7MOL    H12 1944   7.524   7.669   0.652  1.5864 -0.3385  3.3992
    7MOL    H13 1945   7.466   7.479   0.818 -0.4853  0.3914 -0.7006
    7MOL    H14 1946   7.453   7.256   0.729  2.3157 -1.4605 -1.0538
    7MOL    H15 1947   7.687   7.156   0.459  0.7775 -0.9444  0.2355
    7MOL    H16 1948   7.629   7.071   0.602 -1.5431 -0.4553  0.6206
    7MOL    H17 1949   7.392   7.106   0.505 -0.4503  0.8396  1.7174
    7MOL    C18 1950   7.616   6.958   0.427 -0.0599  0.0269  0.3445
    7MOL    C19 1951   7.615   6.980   0.267 -0.4091 -0.3193 -0.8907
    7MOL    C20 1952   7.498   6.930   0.201  0.1160 -0.2606 -0.1399
    7MOL    C21 1953   7.486   6.950   0.064 -0.6602  0.4433  0.4072
    7MOL   Cl22 1954   7.356   6.879   8.417  0.3405  0.4845  0.3424
    7MOL    C23 1955   7.587   7.013   8.424 -0.1370  0.7060 -0.4793
    7MOL    C24 1956   7.696   7.066   0.062 -0.5235  0.4333  0.3237
    7MOL    C25 1957   7.711   7.053   0.200 -0.3816 -0.3451  0.9940
    7MOL    C26 1958   7.749   6.886   0.455  0.1806  0.3639  0.3469
    7MOL    H27 1959   7.530   6.896   0.454 -2.6124  2.3345 -2.0470
    7MOL    H28 1960   7.420   6.893   0.266 -0.8914  2.9795  0.5697
    7MOL    H29 1961   7.591   7.024   8.317  2.4592  0.6166 -0.4274
    7MOL    H30 1962   7.769   7.121   0.003 -0.8610 -1.9871 -2.4855
    7MOL    H31 1963   7.806   7.082   0.245 -0.4091  1.2147  0.0994
    7MOL    H32 1964   7.757   6.799   0.390 -0.0790  0.9916 -0.5368
    7MOL    H33 1965   7.832   6.951   0.426 -0.0274  0.3817 -0.2256
    7MOL    C34 1966   7.782   6.835   0.601  0.5926 -0.3324 -0.3576
    7MOL    C35 1967   7.655   6.775   0.658  0.1671 -0.0631 -0.4445
    7MOL    C36 1968   7.587   6.842   0.762  0.0003  0.0058  0.0537
    7MOL    C37 1969   7.471   6.781   0.823 -0.6804 -0.5537  0.5347
    7MOL   Cl38 1970   7.394   6.859   0.957 -0.1277  0.4679  0.5191
    7MOL    C39 1971   7.426   6.660   0.771 -0.1615  0.1075  0.2495
    7MOL    C40 1972   7.485   6.600   0.662  0.5349 -0.0764 -0.0307
    7MOL    C41 1973   7.605   6.652   0.606  0.7325  0.1514 -0.1592
    7MOL    C42 1974   7.897   6.739   0.614 -0.2109 -0.0586  0.1755
    7MOL    H43 1975   7.813   6.918   0.665 -0.2943  0.5356 -1.0188
    7MOL    H44 1976   7.632   6.926   0.812 -0.1199 -0.4508  0.9383
    7MOL    H45 1977   7.338   6.609   0.807  0.5945 -0.7665  0.8946
    7MOL    H46 1978   7.439   6.507   0.634 -1.3207  0.6605  0.5005
    7MOL    H47 1979   7.660   6.602   0.527  1.7094  1.2934 -0.2102
    7MOL    H48 1980   7.892   6.704   0.717 -1.3788  3.4315  1.3886
    7MOL    H49 1981   7.883   6.651   0.551  0.9707 -0.8041  0.9272
    7MOL    C50 1982   8.037   6.796   0.578 -0.2090  0.3282  0.1806
    7MOL    C51 1983   8.064   6.921   0.660  0.7434  0.0640  0.1523
    7MOL    C52 1984   8.033   7.052   0.607 -1.0779  0.2358  0.5819
    7MOL    C53 1985   8.058   7.165   0.688  0.7261 -0.1169  0.1098
    7MOL   Cl54 1986   8.024   7.325   0.627 -0.1062 -0.0785  0.0913
    7MOL    C55 1987   8.101   7.154   0.821  0.2721 -0.4392 -0.3496
    7MOL    C56 1988   8.120   7.025   0.872  0.0026  0.7395  0.1079
    7MOL    C57 1989   8.106   6.910   0.796 -0.5946  0.7747 -0.5811
    7MOL    C58 1990   8.149   6.692   0.593 -0.0060 -0.3956  0.2579
    7MOL    H59 1991   8.030   6.818   0.472  0.1963  0.2920  0.1474
    7MOL    H60 1992   8.004   7.066   0.504  1.4076  1.1786 -0.0325
    7MOL    H61 1993   8.126   7.239   0.883  0.2392  1.5259 -2.9320
    7MOL    H62 1994   8.152   7.017   0.975  1.7508 -0.3319 -0.5039
    7MOL    H63 1995   8.127   6.812   0.835  0.3704  1.8402  1.6584
    7MOL    H64 1996   8.136   6.640   0.688  1.3996 -0.6380  0.3355
    7MOL    H65 1997   8.123   6.610   0.526 -2.8649  1.5110 -1.0591
    7MOL    C66 1998   8.294   6.735   0.559  0.1317  0.5954 -0.0528
    7MOL    C67 1999   8.398   6.641   0.616 -0.4056 -1.0034 -0.2005
    7MOL    C68 2000   8.390   6.502   0.576 -0.4659 -0.5842 -0.1935
    7MOL    C69 2001   0.047   6.412   0.629  0.2412 -0.9675 -0.4886
    7MOL   Cl70 2002   0.036   6.245   0.588  0.1148  0.4374  0.0778
    7MOL    C71 2003   0.139   6.457   0.723 -0.7053 -0.6507 -0.1703
    7MOL    C72 2004   0.150   6.592   0.759 -0.3483 -0.3507 -0.5847
    7MOL    C73 2005   0.051   6.681   0.716  0.2110  0.3866  0.1167
    7MOL    C74 2006   8.326   6.756   0.407  1.3975 -0.3963  0.1642
    7MOL    H75 2007   8.310   6.826   0.616 -1.8250  0.4124  0.8160
    7MOL    H76 2008   8.333   6.462   0.494 -1.1368 -0.5257  0.2388
    7MOL    H77 2009   0.207   6.379   0.755 -0.3803 -0.0176  0.7009
    7MOL    H78 2010   0.230   6.626   0.824 -2.3000 -1.3988  2.5022
    7MOL    H79 2011   0.068   6.777   0.762 -0.3750 -0.0282  1.1952
    7MOL    H80 2012   8.337   6.661   0.355  0.2294 -0.5767  0.2237
    7MOL    H81 2013   8.235   6.795   0.360  1.4263  0.5235  0.8508
    7MOL    C82 2014   0.006   6.849   0.364 -0.0456 -0.0689 -0.6230
    7MOL    C83 2015   0.028   6.860   0.212 -0.3239  0.1460 -0.3025
    7MOL    C84 2016   0.158   6.849   0.162 -0.6435 -0.2939 -0.2638
    7MOL    C85 2017   0.183   6.874   0.029  0.3914 -0.3985 -0.3419
    7MOL   Cl86 2018   0.340   6.884   8.411  0.0213  0.0660  0.2038
    7MOL    C87 2019   0.072   6.909   8.378 -0.3061 -0.3487 -0.2687
    7MOL    C88 2020   8.378   6.918   8.425 -0.5723  0.0895  0.6604
    7MOL    C89 2021   8.360   6.886   0.126  0.5139  0.4619 -0.0022
    7MOL    C90 2022   8.422   6.996   0.434  0.3245  0.8811 -0.1002
    7MOL    H91 2023   0.103   6.813   0.397 -0.1863  0.1366  0.0212
    7MOL    H92 2024   0.247   6.836   0.222 -1.6308 -0.5387  1.1686
    7MOL    H93 2025   0.086   6.925   8.272  2.9026  1.0806  0.2989
    7MOL    H94 2026   8.296   6.946   8.361  0.2686 -0.1507 -0.5388
    7MOL    H95 2027   8.262   6.898   0.171  1.5993  1.4846  2.1531
    7MOL    H96 2028   8.313   7.005   0.429  0.2217 -0.4926 -0.3687
    7MOL    H97 2029   0.018   6.984   0.538 -0.5910  1.3259  0.2355
    7MOL    C98 2030   0.052   7.127   0.379 -0.4655  0.4215 -0.1172
    7MOL    C99 2031   8.429   7.253   0.445  0.2070 -0.1011 -0.7427
    7MOL   C100 2032   8.348   7.347   0.375  0.1838  0.5405 -0.1158
    7MOL   C101 2033   8.292   7.460   0.443  0.0191  0.2416 -0.1692
    7MOL  Cl102 2034   8.201   7.572   0.357  0.0644  0.1830  0.2200
    7MOL   C103 2035   8.317   7.483   0.579  0.0586  0.0193  0.8860
    7MOL   C104 2036   8.376   7.379   0.649  0.1772 -0.1070 -0.1608
    7MOL   C105 2037   0.002   7.269   0.586 -0.0439  0.0833  0.0331
    7MOL   C106 2038   0.203   7.131   0.398 -0.0524 -0.4374  0.0724
    7MOL   H107 2039   0.025   7.146   0.275  2.0240 -0.0763 -0.8961
    7MOL   H108 2040   8.328   7.327   0.271 -0.8661 -0.5890  0.2966
    7MOL   H109 2041   8.277   7.571   0.628  0.1853 -0.5402  2.0192
    7MOL   H110 2042   8.365   7.376   0.756 -1.5412 -1.3225 -0.3428
    7MOL   H111 2043   0.053   7.191   0.641 -1.0986  0.5189  1.6654
    7MOL   H112 2044   0.234   7.122   0.502  0.9863  2.1923  0.0452
    7MOL   H113 2045   0.232   7.036   0.353  0.6195 -0.2345  0.0775
    7MOL   C114 2046   0.269   7.248   0.315 -0.7753  0.1806  0.2898
    7MOL   C115 2047   0.296   7.376   0.388 -0.7559  0.0527 -0.1306
    7MOL   C116 2048   0.370   7.380   0.509  0.0724 -0.0579  0.7766
    7MOL   C117 2049   0.404   7.505   0.560  0.3039  0.2862 -1.1446
    7MOL  Cl118 2050   0.502   7.515   0.695 -0.0694 -0.2585 -0.2519
    7MOL   C119 2051   0.369   7.622   0.495  0.5540 -0.4090 -0.0713
    7MOL   C120 2052   0.286   7.622   0.381  0.2325  0.8460  0.3730
    7MOL   C121 2053   0.240   7.498   0.330 -0.0717 -0.1114  0.5570
    7MOL   C122 2054   0.395   7.198   0.247  0.1153 -0.3051  0.3152
    7MOL   H123 2055   0.205   7.257   0.227  0.7907 -0.4395 -0.9337
    7MOL   H124 2056   0.400   7.289   0.560  0.2105  0.4885  1.6790
    7MOL   H125 2057   0.404   7.716   0.535 -1.1867 -0.9083  2.8131
    7MOL   H126 2058   0.252   7.714   0.335 -0.7466  0.1428 -0.3263
    7MOL   H127 2059   0.179   7.503   0.241  0.8054  0.9422  0.0039
    7MOL   H128 2060   0.473   7.158   0.311  0.7547 -0.9359 -0.8428
    7MOL   H129 2061   0.379   7.111   0.184 -0.2320 -0.7794  1.0545
    7MOL   C130 2062   0.459   7.311   0.158  0.3276  0.5693 -0.7289
    7MOL   C131 2063   0.605   7.269   0.127  0.5228  0.5473  0.6950
    7MOL   C132 2064   0.637   7.160   0.037  0.0313 -0.2119  0.6472
    7MOL   C133 2065   0.774   7.126   0.019 -0.1163  0.1349 -0.2083
    7MOL  Cl134 2066   0.810   6.992   8.351  0.1877  0.0821 -0.2832
    7MOL   C135 2067   0.877   7.203   0.077  0.2247 -0.5413  0.3103
    7MOL   C136 2068   0.845   7.319   0.150  0.3175 -0.4974  0.1285
    7MOL   C137 2069   0.712   7.347   0.183  0.0403 -0.2293  0.3629
    7MOL   C138 2070   0.372   7.356   0.037  0.1735  0.3536 -0.2203
    7MOL   H139 2071   0.476   7.401   0.217 -0.6276 -0.8830  1.8345
    7MOL   H140 2072   0.562   7.110   8.412 -2.3077  0.6016  2.7776
    7MOL   H141 2073   0.983   7.184   0.070  0.9079  3.1603 -0.7525
    7MOL   H142 2074   0.929   7.382   0.173  1.2043 -0.5392 -2.8625
    7MOL   H143 2075   0.692   7.422   0.258  0.9295  0.4147 -0.0460
    7MOL   H144 2076   0.360   7.269   8.407 -0.8605  1.2478 -1.2296
    7MOL   H145 2077   0.274   7.389   0.069  0.4618  0.1141  0.9681
    7MOL   C146 2078   0.428   7.472   8.392  0.2465  0.3729 -0.1242
    7MOL   C147 2079   0.380   7.488   8.247 -0.3846 -0.6715  0.4030
    7MOL   C148 2080   0.420   7.400   8.146 -0.1641  0.1864  0.5352
    7MOL   C149 2081   0.388   7.428   8.009  0.2444 -0.6622 -0.6901
    7MOL  Cl150 2082   0.430   7.321   7.882 -0.1204  0.0719  0.1940
    7MOL   C151 2083   0.308   7.536   7.976  0.2345 -0.9729  0.0457
    7MOL   C152 2084   0.251   7.609   8.081  0.2519  0.3519 -0.3245
    7MOL   C153 2085   0.288   7.585   8.210  0.2547 -0.0783 -0.2653
    7MOL   C154 2086   0.440   7.601   0.038 -0.6956 -0.0778 -0.1289
    7MOL   H155 2087   0.533   7.444   8.377  0.3050 -0.6827  1.9254
    7MOL   H156 2088   0.490   7.323   8.173 -0.3312 -1.0994 -2.5178
    7MOL   H157 2089   0.281   7.553   7.873 -1.6713  0.6929  0.7729
    7MOL   H158 2090   0.174   7.685   8.076 -0.3993 -0.2570  0.2501
    7MOL   H159 2091   0.256   7.655   8.286 -0.0534 -0.9952  0.4584
    7MOL   H160 2092   0.337   7.618   0.071 -0.0943 -1.1773  2.4328
    7MOL   H161 2093   0.492   7.578   0.131  1.2402  1.8486 -0.7003
    7MOL   C162 2094   0.516   7.724   8.412 -0.4637 -0.2355 -0.3589
    7MOL   C163 2095   0.522   7.829   0.084 -0.1313 -0.4735 -0.0917
    7MOL   C164 2096   0.567   7.819   0.216  0.1484 -0.3742 -0.4716
    7MOL   C165 2097   0.557   7.928   0.302 -0.4715  0.0935  0.7209
    7MOL  Cl166 2098   0.607   7.899   0.464 -0.2939  0.1675 -0.1891
    7MOL   C167 2099   0.501   8.051   0.267  0.3304  0.0487 -0.0387
    7MOL   C168 2100   0.463   8.065   0.135  0.6884 -0.0904  0.3353
    7MOL   C169 2101   0.472   7.954   0.047 -0.5979  0.6027 -0.0531
    7MOL   C170 2102   0.649   7.682   8.364 -0.8278  0.1466 -0.0662
    7MOL   H171 2103   0.455   7.759   8.328  1.7108  2.7214 -0.7795
    7MOL   H172 2104   0.608   7.723   0.246 -0.3044 -0.0682  1.1701
    7MOL   H173 2105   0.496   8.126   0.345  0.7220 -0.2568  0.2848
    7MOL   H174 2106   0.411   8.153   0.101  0.4635 -0.6232 -0.7115
    7MOL   H175 2107   0.445   7.959   8.378  0.0645 -0.2094 -0.2619
    7MOL   H176 2108   0.700   7.637   0.014  1.3226 -0.7129 -1.7549
    7MOL   H177 2109   0.643   7.613   8.280 -1.5198 -0.5713  0.5684
    7MOL   C178 2110   0.740   7.809   8.324 -0.2771 -0.4430  0.0229
    7MOL   C179 2111   0.883   7.775   8.324  0.4048 -0.7110  0.0543
    7MOL   C180 2112   0.930   7.674   8.230 -0.0889 -0.0921 -0.0519
    7MOL   C181 2113   1.065   7.649   8.219  0.1791  0.3107 -0.0781
    7MOL  Cl182 2114   1.110   7.501   8.131  0.4432 -0.1688  0.2245
    7MOL   C183 2115   1.155   7.717   8.300  0.4753 -0.3400 -0.6404
    7MOL   C184 2116   1.113   7.803   8.400 -0.7516  0.4651  0.4677
    7MOL   C185 2117   0.980   7.839   8.404  0.2865 -0.3259 -0.4818
    7MOL   C186 2118   0.698   7.889   8.195  0.0787  0.2661 -0.3056
    7MOL   H187 2119   0.741   7.877   8.409 -1.6131 -0.9902  0.4920
    7MOL   H188 2120   0.864   7.614   8.169  0.7295 -2.2288  1.0994
    7MOL   H189 2121   1.262   7.699   8.304  0.4119 -0.2701  1.6382
    7MOL   H190 2122   1.182   7.860   0.026 -2.0016  3.0418 -0.4598
    7MOL   H191 2123   0.955   7.917   0.039 -0.5369  0.3251 -1.5006
    7MOL   H192 2124   0.692   7.807   8.123  0.8260 -1.1061  1.1407
    7MOL   H193 2125   0.590   7.902   8.210  0.0205  0.5303 -0.9327
    7MOL   C194 2126   0.793   8.017   8.170  0.2848 -0.8800  0.1612
    7MOL   C195 2127   0.902   7.983   8.069  0.4297  0.1500  0.5578
    7MOL   C196 2128   1.038   8.019   8.092 -0.6889  0.1226 -0.7381
    7MOL   C197 2129   1.136   7.999   7.995  0.3239 -0.0629  0.1963
    7MOL  Cl198 2130   1.294   8.057   8.028  0.3509 -0.3210 -0.4612
    7MOL   C199 2131   1.109   7.942   7.868  0.3163  0.9817 -0.1093
    7MOL   C200 2132   0.968   7.909   7.844  0.0589 -0.0970  0.4683
    7MOL   C201 2133   0.868   7.933   7.941 -0.2779 -0.0490  0.7184
    7MOL   C202 2134   0.717   8.144   8.125 -0.0326  0.2588 -0.3617
    7MOL   H203 2135   0.853   8.031   8.260  0.5178 -1.2245  0.0597
    7MOL   H204 2136   1.059   8.064   8.188  0.4688 -0.1291 -0.8649
    7MOL   H205 2137   1.188   7.922   7.797 -0.5079 -0.2574 -0.7094
    7MOL   H206 2138   0.931   7.879   7.747 -0.8673  1.0993  0.4345
    7MOL   H207 2139   0.765   7.921   7.909  0.2225 -2.0589 -0.2556
    7MOL   H208 2140   0.783   8.197   8.056  0.4334 -1.8278 -1.5384
    7MOL   H209 2141   0.627   8.113   8.072 -0.0739 -0.6053  0.2007
    7MOL   C210 2142   0.674   8.241   8.234  0.2423 -0.3496  0.5874
    7MOL   C211 2143   0.778   8.266   8.337  0.4805  0.1985  0.4914
    7MOL   C212 2144   0.751   8.244   0.040 -0.0172 -0.3420 -0.2013
    7MOL   C213 2145   0.857   8.249   0.138  0.6426 -0.3379  0.5795
    7MOL  Cl214 2146   0.827   8.189   0.295 -0.1030  0.0633  0.2340
    7MOL   C215 2147   0.983   8.278   0.097 -0.2846  0.1704  0.2333
    7MOL   C216 2148   1.015   8.301   8.396  0.5275  0.7000 -0.6231
    7MOL   C217 2149   0.915   8.290   8.301 -0.2043 -0.1317  0.4701
    7MOL   C218 2150   0.614   8.373   8.170 -0.1498 -0.1780 -0.6725
    7MOL   H219 2151   0.591   8.185   8.277  0.6900 -0.0567  1.8636
    7MOL   H220 2152   0.654   8.213   0.075 -0.3326 -0.2266 -0.9754
    7MOL   H221 2153   1.065   8.284   0.168  0.1688 -0.0688 -0.2634
    7MOL   H222 2154   1.115   8.334   8.373 -0.6035  3.9566 -1.0383
    7MOL   H223 2155   0.938   8.328   8.202 -0.2831 -1.5939 -0.1214
    7MOL   H224 2156   0.582   8.431   8.256  0.6720  2.5427 -2.1258
    7MOL   H225 2157   0.692   0.007   8.136 -0.7196  1.3207  1.0087
    7MOL   C226 2158   0.483   8.367   8.083 -0.8266 -0.3957  0.3404
    7MOL   C227 2159   0.378   8.294   8.156  0.1695  0.9804  0.3800
    7MOL   C228 2160   0.314   8.359   8.263  0.4638 -0.1274  0.3922
    7MOL   C229 2161   0.206   8.296   8.329  0.6539 -0.2816  0.6170
    7MOL  Cl230 2162   0.152   8.366   0.043  0.4919 -0.2288 -0.0193
    7MOL   C231 2163   0.168   8.169   8.297 -0.3530  0.0783  1.2446
    7MOL   C232 2164   0.223   8.100   8.189  0.1353  0.1179  0.3017
    7MOL   C233 2165   0.334   8.164   8.122  0.2058  0.4228 -0.0403
    7MOL   C234 2166   0.447   0.074   8.026 -0.0330  0.7675  0.5919
    7MOL   H235 2167   0.502   8.303   7.997  0.4080 -0.1927  0.4543
    7MOL   H236 2168   0.350   0.018   8.301  2.0044 -0.7059  0.3963
    7MOL   H237 2169   0.086   8.125   8.352 -2.3427  0.3737 -1.3653
    7MOL   H238 2170   0.196   7.996   8.178  0.3083 -0.1783  2.4548
    7MOL   H239 2171   0.379   8.116   8.037 -1.2385  0.7106 -0.9965
    7MOL   H240 2172   0.420   0.141   8.108 -1.1434  0.5293  0.4265
    7MOL   H241 2173   0.531   0.132   7.989  2.0428 -2.3630  0.2014
    7MOL   C242 2174   0.348   0.074   7.905 -1.3330 -0.2754  0.1590
    7MOL   C243 2175   0.215   8.429   7.923 -0.1172  0.1795  0.0510
    7MOL   C244 2176   0.119   0.026   8.021  0.2772 -0.0683 -0.2772
    7MOL   C245 2177   0.004   8.384   8.034 -0.1521  0.1429 -0.0057
    7MOL  Cl246 2178   8.335   8.427   8.163 -0.0839  0.1051  0.1437
    7MOL   C247 2179   8.418   8.265   7.964 -0.6423 -0.0332  0.7420
    7MOL   C248 2180   0.081   8.227   7.872  0.7700  0.4409 -0.0997
    7MOL   C249 2181   0.195   8.311   7.848 -0.3006 -0.0787  0.9496
    7MOL   C250 2182   0.326   0.218   7.867 -0.5882 -0.2271 -0.2950
    7MOL   H251 2183   0.404   0.032   7.821 -0.7780  0.6663  0.0435
    7MOL   H252 2184   0.131   0.105   8.093 -0.0558 -1.0074  0.8221
    7MOL   H253 2185   8.335   8.200   7.987 -0.2508 -0.5660  0.6482
    7MOL   H254 2186   0.062   8.136   7.816 -1.0200  0.3477  0.6058
    7MOL   H255 2187   0.272   8.279   7.779 -0.7882  1.9590 -0.5977
    7MOL   H256 2188   0.288   0.264   7.958  0.5703 -0.6850  0.4360
    7MOL   H257 2189   0.423   0.256   7.837 -1.2050 -0.7341 -3.0913
    7MOL   C258 2190   0.227   0.242   7.749  0.1597 -0.2249 -0.2855
    7MOL   C259 2191   0.176   0.384   7.758  0.3016 -0.2182 -0.5176
    7MOL   C260 2192   0.042   0.406   7.746  0.2204 -0.1419 -0.5258
    7MOL   C261 2193   8.420   0.535   7.770  0.5908 -0.3391  0.3905
    7MOL  Cl262 2194   8.245   0.550   7.757 -0.0302  0.2593  0.2468
    7MOL   C263 2195   0.073   0.644   7.783 -0.1430 -1.0611  0.3729
    7MOL   C264 2196   0.215   0.627   7.780 -0.0161  0.1417 -0.2586
    7MOL   C265 2197   0.260   0.493   7.771 -0.1567  0.4443 -0.4893
    7MOL   C266 2198   0.300   0.217   7.609 -0.2185 -0.6593  0.5270
    7MOL   H267 2199   0.136   0.186   7.773  0.4498 -0.3116  0.6332
    7MOL   H268 2200   8.414   0.321   7.723 -0.7727 -0.0515  1.7398
    7MOL   H269 2201   0.023   0.739   7.793  0.9447 -0.2647 -1.6784
    7MOL   H270 2202   0.278   0.714   7.772 -1.8617  1.3141 -2.6131
    7MOL   H271 2203   0.367   0.478   7.781  0.0031  2.3366  0.9304
    7MOL   H272 2204   0.386   0.278   7.584 -0.1257 -1.3408 -0.8134
    7MOL   H273 2205   0.344   0.118   7.622  0.5834 -0.5201 -1.1168
    7MOL   C274 2206   0.205   0.230   7.486  0.3052  0.4554 -0.2863
    7MOL   C275 2207   0.273   0.331   7.387  0.3106 -0.0869 -0.2981
    7MOL   C276 2208   0.263   0.467   7.419 -0.2498  0.1081 -0.3199
    7MOL   C277 2209   0.324   0.568   7.335  0.1861 -0.5615  0.1577
    7MOL  Cl278 2210   0.326   0.723   7.391  0.2156 -0.2615 -0.0760
    7MOL   C279 2211   0.390   0.531   7.218 -0.3404  0.0422  0.0952
    7MOL   C280 2212   0.386   0.394   7.179 -0.5760  0.0427  0.2533
    7MOL   C281 2213   0.337   0.295   7.267  0.0839 -0.4677  0.3045
    7MOL   C282 2214   0.169   0.087   7.420  0.2399 -0.5184  0.5461
    7MOL   H283 2215   0.114   0.288   7.503  0.1766 -0.3003  1.8267
    7MOL   H284 2216   0.230   0.493   7.518  3.6380  0.8957  0.8700
    7MOL   H285 2217   0.439   0.608   7.162 -1.5174 -1.8046 -3.6464
    7MOL   H286 2218   0.417   0.366   7.079 -0.9895 -1.8090  0.6147
    7MOL   H287 2219   0.330   0.191   7.237  1.5519  0.0563 -2.0071
    7MOL   H288 2220   0.126   0.106   7.322  2.2106 -0.1862 -0.2714
    7MOL   H289 2221   0.257   0.030   7.392  0.4584 -0.2163  0.6133
    7MOL   C290 2222   0.075   8.421   7.493  0.1497 -0.6941  0.2269
    7MOL   C291 2223   8.380   0.044   7.536 -0.8077 -0.3228 -0.7528
    7MOL   C292 2224   8.281   0.080   7.442 -0.6623 -0.0894  0.1411
    7MOL   C293 2225   8.159   0.132   7.483  0.4695 -0.0520  0.4293
    7MOL  Cl294 2226   8.043   0.198   7.366 -0.1665  0.2911  0.1693
    7MOL   C295 2227   8.129   0.147   7.618  0.0104  0.6803  0.6628
    7MOL   C296 2228   8.221   0.101   7.714 -0.3155 -0.1653  0.0785
    7MOL   C297 2229   8.346   0.049   7.674  0.0134  0.3817 -0.1947
    7MOL   C298 2230   0.056   8.286   7.421  0.1975  0.0804  0.4459
    7MOL   H299 2231   0.126   8.409   7.588  0.5285  0.5633  0.1956
    7MOL   H300 2232   8.306   0.077   7.337 -0.2828  2.0679  0.1346
    7MOL   H301 2233   8.027   0.167   7.649 -0.3271 -2.9587  2.1325
    7MOL   H302 2234   8.205   0.095   7.821  2.6432  0.4269  0.5997
    7MOL   H303 2235   8.416   0.018   7.750 -2.3998  0.5101  2.1349
    7MOL   H304 2236   8.389   8.256   7.447 -0.1998 -0.6414 -1.8424
    7MOL   H305 2237   0.058   8.291   7.312  0.0486 -0.4299  0.4171
    7MOL   C306 2238   0.143   8.164   7.473 -0.4213  0.2347  0.0314
    7MOL   C307 2239   0.090   8.027   7.433 -0.2564  0.1998 -0.6016
    7MOL   C308 2240   0.113   7.961   7.308 -0.0167 -0.0084  0.4085
    7MOL   C309 2241   0.034   7.850   7.271 -0.4161  0.1308  0.5884
    7MOL  Cl310 2242   0.044   7.787   7.106 -0.2497 -0.5612 -0.1939
    7MOL   C311 2243   8.388   7.783   7.369 -0.0233 -0.3079  0.4345
    7MOL   C312 2244   8.373   7.841   7.498  0.8059  0.7214 -0.7683
    7MOL   C313 2245   8.432   7.966   7.524 -0.0914 -0.4849  0.3240
    7MOL   C314 2246   0.289   8.182   7.429  0.5850 -0.5965  0.2336
    7MOL   H315 2247   0.137   8.171   7.582 -2.3950  0.8475 -0.0903
    7MOL   H316 2248   0.185   7.997   7.235 -1.3832  1.2791 -0.3470
    7MOL   H317 2249   8.330   7.696   7.341 -0.0648 -0.5595  1.2875
    7MOL   H318 2250   8.301   7.796   7.564  0.1509  1.0376 -1.2692
    7MOL   H319 2251   8.396   8.009   7.616 -1.1917 -0.8314  0.0682
    7MOL   H320 2252   0.353   8.094   7.436  1.5660  0.0732 -0.1184
    7MOL   H321 2253   0.288   8.210   7.323  3.9636  0.8722  0.5160
    7MOL   H322 2254   0.334   8.262   7.489  2.6481 -1.9817  0.5935
    8MOL     C1 2255   5.262   6.178   3.399  0.2094 -0.6606 -0.0832
    8MOL     C2 2256   5.210   6.029   3.415  1.1952  0.1844  0.1282
    8MOL     C3 2257   5.294   5.916   3.395  0.5516  0.3645 -0.3127
    8MOL     C4 2258   5.238   5.785   3.409  0.1596 -0.8570 -0.1252
    8MOL    Cl5 2259   5.343   5.646   3.406 -0.4539 -0.3429  0.3559
    8MOL     C6 2260   5.095   5.770   3.418 -0.3031 -0.5285  0.5032
    8MOL     C7 2261   5.008   5.877   3.421 -0.2426 -0.6092  0.1936
    8MOL     C8 2262   5.069   6.008   3.429  0.4759 -0.2997 -0.0292
    8MOL     C9 2263   5.343   6.203   3.275  0.4967  0.0887 -0.2023
    8MOL    H10 2264   5.316   6.197   3.492 -0.6093 -0.3714  0.3385
    8MOL    H11 2265   5.400   5.927   3.381  0.8845  1.9830  2.9725
    8MOL    H12 2266   5.047   5.673   3.412 -0.1944 -0.4613 -1.6763
    8MOL    H13 2267   4.902   5.857   3.418 -0.6308  1.0138  1.9207
    8MOL    H14 2268   5.003   6.094   3.426  1.3154  0.4002  1.0082
    8MOL    H15 2269   5.437   6.148   3.283 -0.6702 -1.8242  0.6577
    8MOL    H16 2270   5.286   6.156   3.195  0.7548  1.2002 -1.0432
    8MOL    H17 2271   5.178   6.246   3.389  1.1682  0.2342 -2.4857
    8MOL    C18 2272   5.362   6.351   3.230 -0.9881 -0.5845  0.0655
    8MOL    C19 2273   5.423   6.434   3.340 -0.2567  0.1696  0.2287
    8MOL    C20 2274   5.350   6.543   3.397  0.0463  0.6571  0.4911
    8MOL    C21 2275   5.411   6.616   3.501  1.0238  0.7377 -0.5024
    8MOL   Cl22 2276   5.309   6.732   3.571 -0.1140 -0.0833 -0.1077
    8MOL    C23 2277   5.534   6.583   3.554  0.6555  0.0945 -0.4259
    8MOL    C24 2278   5.614   6.473   3.502  0.1904  0.5135  0.3127
    8MOL    C25 2279   5.550   6.403   3.396 -0.0215 -0.1560  0.3156
    8MOL    C26 2280   5.448   6.363   3.101 -0.1471  0.6671 -0.5934
    8MOL    H27 2281   5.264   6.393   3.205  0.2501  1.5691 -1.2357
    8MOL    H28 2282   5.250   6.574   3.372 -0.8393 -1.6359  1.1342
    8MOL    H29 2283   5.573   6.640   3.637 -0.4181 -0.6256  0.5906
    8MOL    H30 2284   5.712   6.450   3.540  0.8698  3.4298  0.4561
    8MOL    H31 2285   5.602   6.317   3.356  1.8877  0.3378  1.6416
    8MOL    H32 2286   5.459   6.468   3.073  0.1695  1.3997  2.1835
    8MOL    H33 2287   5.543   6.320   3.135 -1.4892 -1.5803  0.4452
    8MOL    C34 2288   5.405   6.277   2.977  0.5095 -0.2689 -0.0573
    8MOL    C35 2289   5.263   6.320   2.938  0.4845  0.7014 -0.3992
    8MOL    C36 2290   5.167   6.217   2.945 -0.0107 -0.2803  0.4665
    8MOL    C37 2291   5.034   6.260   2.923 -0.3263  0.6115  0.5578
    8MOL   Cl38 2292   4.916   6.140   2.931 -0.1100 -0.1275 -0.0145
    8MOL    C39 2293   5.000   6.387   2.873 -0.2328  0.4569 -0.0232
    8MOL    C40 2294   5.099   6.487   2.867 -0.0864  0.3743  0.4230
    8MOL    C41 2295   5.223   6.453   2.908 -0.6031 -0.0083  0.3490
    8MOL    C42 2296   5.508   6.318   2.861  0.0666  0.1487 -0.1133
    8MOL    H43 2297   5.403   6.169   2.984 -0.6258 -0.1859  0.9826
    8MOL    H44 2298   5.201   6.119   2.977  0.3960 -0.8054 -1.5060
    8MOL    H45 2299   4.897   6.410   2.851 -2.0298 -2.7219  4.3010
    8MOL    H46 2300   5.066   6.587   2.843 -0.8535 -0.1384 -0.7356
    8MOL    H47 2301   5.302   6.526   2.922  0.0785 -0.5379 -0.6552
    8MOL    H48 2302   5.494   6.425   2.849  1.9958  1.1298  4.9113
    8MOL    H49 2303   5.608   6.308   2.903 -0.5856 -1.1345  1.1952
    8MOL    C50 2304   5.492   6.252   2.720  0.0755  0.5113  0.1830
    8MOL    C51 2305   5.546   6.340   2.606  0.0459  0.5134  0.7023
    8MOL    C52 2306   5.670   6.405   2.627  0.8106  0.1899  0.1056
    8MOL    C53 2307   5.719   6.483   2.526  0.1204 -0.0631 -0.0373
    8MOL   Cl54 2308   5.864   6.571   2.548  0.3926  0.4343  0.0881
    8MOL    C55 2309   5.652   6.493   2.403 -0.0701 -0.5422 -0.6392
    8MOL    C56 2310   5.534   6.419   2.378  0.2245 -0.5206 -0.4329
    8MOL    C57 2311   5.474   6.348   2.482  0.4133  0.1265 -0.3253
    8MOL    C58 2312   5.535   6.103   2.713  0.9757 -0.1573  0.0207
    8MOL    H59 2313   5.387   6.250   2.691  0.7241 -0.2890 -2.2265
    8MOL    H60 2314   5.731   6.411   2.716 -0.0256  3.1445  0.5247
    8MOL    H61 2315   5.697   6.559   2.330 -2.0189  1.9394  0.3480
    8MOL    H62 2316   5.492   6.435   2.280  1.2624  1.7349 -0.5488
    8MOL    H63 2317   5.378   6.300   2.469 -0.5193  1.8442 -0.0335
    8MOL    H64 2318   5.633   6.091   2.761  0.2894 -1.7148  1.0653
    8MOL    H65 2319   5.479   6.045   2.786 -0.6990  1.5043  0.0818
    8MOL    C66 2320   5.517   6.030   2.575 -1.2039  0.0413  0.1583
    8MOL    C67 2321   5.645   5.962   2.527  0.3488 -0.2777 -0.2755
    8MOL    C68 2322   5.660   5.816   2.513 -0.0095 -1.0245  0.8307
    8MOL    C69 2323   5.782   5.763   2.486  0.3162 -0.0791 -0.3791
    8MOL   Cl70 2324   5.806   5.591   2.496 -0.3251 -0.0112  0.0955
    8MOL    C71 2325   5.880   5.853   2.433  0.2469  0.1137 -0.4084
    8MOL    C72 2326   5.866   5.992   2.444 -0.7054  1.0041 -0.1683
    8MOL    C73 2327   5.750   6.048   2.497  0.0257 -1.0436  0.7327
    8MOL    C74 2328   5.401   5.926   2.566  0.1224  0.1322  0.3582
    8MOL    H75 2329   5.510   6.098   2.491 -3.0601  1.5425  1.4838
    8MOL    H76 2330   5.581   5.743   2.526 -0.4903 -0.7976 -0.6616
    8MOL    H77 2331   5.970   5.814   2.387  0.9456 -0.6987  1.5986
    8MOL    H78 2332   5.946   6.058   2.414 -0.5123  0.8705  0.0576
    8MOL    H79 2333   5.750   6.154   2.518  0.0663 -0.9769  0.4062
    8MOL    H80 2334   5.395   5.892   2.463  1.7643 -0.8581  0.5795
    8MOL    H81 2335   5.430   5.842   2.630 -0.5551 -0.3327  0.0536
    8MOL    C82 2336   5.272   5.984   2.618 -0.7517  0.1300  0.2479
    8MOL    C83 2337   5.209   6.089   2.525 -0.7450  0.5386  0.6454
    8MOL    C84 2338   5.152   6.201   2.575 -0.2268  0.7917 -0.0994
    8MOL    C85 2339   5.094   6.298   2.487 -0.4673  0.2844 -1.2881
    8MOL   Cl86 2340   5.016   6.437   2.559  0.2536 -0.0273 -0.0645
    8MOL    C87 2341   5.095   6.280   2.350  0.5698 -0.0429  0.7113
    8MOL    C88 2342   5.146   6.160   2.301 -0.3666 -0.7788 -0.1555
    8MOL    C89 2343   5.193   6.059   2.385 -0.3118  0.2495 -0.4350
    8MOL    C90 2344   5.179   5.868   2.656  0.1869 -0.0512  0.2373
    8MOL    H91 2345   5.282   6.024   2.719  1.4896 -0.3787  0.2569
    8MOL    H92 2346   5.142   6.214   2.682 -2.0784 -2.1372  0.1239
    8MOL    H93 2347   5.049   6.348   2.280  2.7517  2.0195  1.2309
    8MOL    H94 2348   5.141   6.134   2.196  1.9698  0.7256 -0.6733
    8MOL    H95 2349   5.230   5.966   2.344  3.1427  1.0095  0.7416
    8MOL    H96 2350   5.232   5.810   2.731 -2.1420  0.0987  2.0648
    8MOL    H97 2351   5.101   5.923   2.709  1.1220 -0.4361  2.0611
    8MOL    C98 2352   5.108   5.775   2.551  0.0511  0.3030  0.2971
    8MOL    C99 2353   5.210   5.695   2.468  0.4306 -0.8195  0.0982
    8MOL   C100 2354   5.309   5.621   2.533 -0.2548  0.0487 -0.2629
    8MOL   C101 2355   5.398   5.540   2.464  0.1721  1.2185  0.9030
    8MOL  Cl102 2356   5.513   5.447   2.550  0.4238 -0.2286 -0.0853
    8MOL   C103 2357   5.393   5.535   2.326 -0.1713  0.3460 -0.3211
    8MOL   C104 2358   5.286   5.604   2.258  0.0595 -0.6514  0.3589
    8MOL   C105 2359   5.189   5.680   2.330 -0.5183 -0.1561  0.5074
    8MOL   C106 2360   5.007   5.679   2.625 -0.2147 -0.6913 -0.1551
    8MOL   H107 2361   5.050   5.833   2.479 -1.0191  0.1992  1.0562
    8MOL   H108 2362   5.323   5.628   2.640 -3.4713  0.1322  0.2038
    8MOL   H109 2363   5.470   5.482   2.273  0.3973  0.3095  0.5279
    8MOL   H110 2364   5.277   5.601   2.150 -2.5889  0.9776  0.4732
    8MOL   H111 2365   5.118   5.744   2.280 -1.1932 -1.6220 -0.4622
    8MOL   H112 2366   4.981   5.610   2.545  2.8539 -2.1915  0.0835
    8MOL   H113 2367   5.055   5.615   2.699  1.6797  0.5629 -0.2548
    8MOL   C114 2368   4.882   5.748   2.689  0.2612  0.0248 -0.3196
    8MOL   C115 2369   4.802   5.814   2.573 -0.8817  0.0284  0.0229
    8MOL   C116 2370   4.748   5.745   2.465 -1.0100  0.0467 -0.4109
    8MOL   C117 2371   4.690   5.816   2.350  0.0957  0.0642 -0.2218
    8MOL  Cl118 2372   4.623   5.726   2.219 -0.1230 -0.3224 -0.0727
    8MOL   C119 2373   4.690   5.959   2.347  0.1325 -0.1251  0.0388
    8MOL   C120 2374   4.749   6.022   2.458 -0.1516 -0.5742  0.7688
    8MOL   C121 2375   4.790   5.958   2.573  0.0003  0.6788  0.3822
    8MOL   C122 2376   4.792   5.671   2.786 -0.2207 -0.4819 -0.3946
    8MOL   H123 2377   4.913   5.832   2.752 -0.9258 -0.9037  1.5643
    8MOL   H124 2378   4.756   5.638   2.457 -0.4359 -0.0738  1.5298
    8MOL   H125 2379   4.630   6.011   2.274 -2.4898  0.6829  2.6835
    8MOL   H126 2380   4.753   6.130   2.455 -1.3600 -0.5475 -0.0775
    8MOL   H127 2381   4.824   6.022   2.653  0.5061 -0.7143  1.2990
    8MOL   H128 2382   4.711   5.736   2.820 -0.6021 -1.7697  1.2393
    8MOL   H129 2383   4.744   5.594   2.724 -2.0268  0.0044  0.3617
    8MOL   C130 2384   4.866   5.597   2.904 -0.0264  0.3782 -0.2424
    8MOL   C131 2385   4.990   5.655   2.972 -0.1933  0.9823  0.2193
    8MOL   C132 2386   5.123   5.607   2.959  0.5150  0.1345 -0.1623
    8MOL   C133 2387   5.231   5.674   3.010 -0.0582  0.1563 -0.4395
    8MOL  Cl134 2388   5.386   5.593   3.005 -0.5440 -0.4047  0.1870
    8MOL   C135 2389   5.219   5.796   3.067  0.1982  0.3465  0.0372
    8MOL   C136 2390   5.093   5.856   3.066 -0.3389 -0.2687 -0.1010
    8MOL   C137 2391   4.974   5.781   3.027 -0.7054  0.2503 -0.5625
    8MOL   C138 2392   4.772   5.529   3.001 -0.5521 -0.1223  0.1058
    8MOL   H139 2393   4.910   5.510   2.854 -0.5819 -0.4451  0.6926
    8MOL   H140 2394   5.139   5.511   2.911 -0.7379  0.4225 -1.2092
    8MOL   H141 2395   5.311   5.841   3.101 -0.7802  2.7964 -0.4520
    8MOL   H142 2396   5.086   5.952   3.115  1.9343 -0.3357  0.4172
    8MOL   H143 2397   4.874   5.822   3.037 -0.4617  0.5157  0.8664
    8MOL   H144 2398   4.746   5.583   3.092 -0.3642 -0.0062  0.0918
    8MOL   H145 2399   4.675   5.532   2.952 -2.2487 -0.4200  3.2613
    8MOL   C146 2400   4.803   5.381   3.030  0.1221 -0.4494 -0.1678
    8MOL   C147 2401   4.941   5.361   3.090  0.2037  0.7346  0.2281
    8MOL   C148 2402   5.041   5.291   3.025 -0.1508  0.6220 -0.0893
    8MOL   C149 2403   5.174   5.277   3.075  0.3652  0.4590  0.1259
    8MOL  Cl150 2404   5.297   5.208   2.990  0.4393 -0.2617 -0.1860
    8MOL   C151 2405   5.203   5.330   3.199 -0.2538  0.2131  1.2096
    8MOL   C152 2406   5.106   5.396   3.274  0.1215  0.0339 -0.3377
    8MOL   C153 2407   4.974   5.409   3.220  0.1984  0.5703 -0.6423
    8MOL   C154 2408   4.688   5.318   3.114 -0.2522 -0.3582 -0.5800
    8MOL   H155 2409   4.800   5.327   2.936  1.7342 -0.1628 -0.3967
    8MOL   H156 2410   5.022   5.227   2.940 -0.0517  0.2497  0.1649
    8MOL   H157 2411   5.303   5.317   3.237  0.5549  1.8982 -0.2741
    8MOL   H158 2412   5.138   5.432   3.371  0.7174  1.3027 -0.9955
    8MOL   H159 2413   4.894   5.462   3.270 -1.2690 -1.8561 -0.3204
    8MOL   H160 2414   4.688   5.377   3.205  0.9632 -1.5680  0.2230
    8MOL   H161 2415   4.588   5.329   3.072 -0.7797 -0.7615  0.5613
    8MOL   C162 2416   4.709   5.162   3.147  0.2423  0.8809 -0.3892
    8MOL   C163 2417   4.652   5.136   3.288  0.5683  0.4645 -0.1430
    8MOL   C164 2418   4.516   5.182   3.326  0.6234  0.7059  0.6716
    8MOL   C165 2419   4.471   5.156   3.457  0.5405  0.5620  0.3099
    8MOL  Cl166 2420   4.310   5.193   3.506  0.1559 -0.0475 -0.0649
    8MOL   C167 2421   4.549   5.071   3.546  0.3529 -0.4835  0.5491
    8MOL   C168 2422   4.675   5.019   3.498 -0.3408 -0.4701  0.4422
    8MOL   C169 2423   4.727   5.058   3.375  0.0974  0.6205  0.7359
    8MOL   C170 2424   4.637   5.081   3.035  0.3779  0.3227 -0.5496
    8MOL   H171 2425   4.818   5.149   3.147  0.2222  0.6432  1.9212
    8MOL   H172 2426   4.450   5.230   3.256  0.2877 -1.8670 -0.8230
    8MOL   H173 2427   4.500   5.048   3.639 -1.6908 -0.1564 -0.4173
    8MOL   H174 2428   4.744   4.960   3.556  0.0983  0.3925  0.7914
    8MOL   H175 2429   4.820   5.013   3.342  0.7998  3.0545 -0.7076
    8MOL   H176 2430   4.529   5.094   3.039  0.8715  4.7413  2.7228
    8MOL   H177 2431   4.663   5.116   2.935  0.3603  0.4763 -0.5022
    8MOL   C178 2432   4.670   4.928   3.032  0.2250  0.3633  0.3287
    8MOL   C179 2433   4.587   4.846   3.131  0.0896  0.1000  0.7055
    8MOL   C180 2434   4.652   4.758   3.222 -0.0175 -0.1056 -0.3504
    8MOL   C181 2435   4.576   4.696   3.321  0.0020 -0.0916 -0.4518
    8MOL  Cl182 2436   4.662   4.619   3.447 -0.0337 -0.2836 -0.2611
    8MOL   C183 2437   4.439   4.709   3.327  0.3233 -0.3955 -0.5659
    8MOL   C184 2438   4.367   4.796   3.239 -0.3254  1.0413  0.0711
    8MOL   C185 2439   4.445   4.865   3.145  0.0377  0.1084  0.6022
    8MOL   C186 2440   4.650   4.857   2.896 -0.4235  0.0601  0.1312
    8MOL   H187 2441   4.776   4.925   3.057  0.0251 -2.2051  0.9319
    8MOL   H188 2442   4.758   4.776   3.229 -0.0313 -0.0429 -0.2981
    8MOL   H189 2443   4.388   4.660   3.409 -1.6957  1.5510 -0.6087
    8MOL   H190 2444   4.260   4.801   3.253 -0.4356 -0.3436 -0.2213
    8MOL   H191 2445   4.387   4.924   3.076  0.4305  1.3956  1.3714
    8MOL   H192 2446   4.640   4.751   2.919 -1.1866  0.1447  0.2013
    8MOL   H193 2447   4.556   4.897   2.857  0.0299  1.2388  0.2250
    8MOL   C194 2448   4.766   4.873   2.798 -0.1623  0.3122  1.2298
    8MOL   C195 2449   4.895   4.819   2.853 -0.5246 -0.2583 -0.3166
    8MOL   C196 2450   4.913   4.693   2.906 -0.0676 -0.3517  0.3709
    8MOL   C197 2451   5.033   4.647   2.956 -0.6208 -0.6798  0.4378
    8MOL  Cl198 2452   5.049   4.485   3.014 -0.2235 -0.2733 -0.0922
    8MOL   C199 2453   5.147   4.730   2.949  0.8618 -0.2137  0.5540
    8MOL   C200 2454   5.129   4.860   2.902  0.8398  0.3407  0.3237
    8MOL   C201 2455   5.008   4.905   2.849  0.0669  0.4852  0.1415
    8MOL   C202 2456   4.740   4.797   2.666  0.5245 -0.4028 -0.4012
    8MOL   H203 2457   4.789   4.975   2.765  0.7498 -0.6488 -1.2526
    8MOL   H204 2458   4.836   4.619   2.919 -0.3308  0.0479  1.0955
    8MOL   H205 2459   5.246   4.699   2.976  0.4867 -0.3004  1.8675
    8MOL   H206 2460   5.213   4.928   2.902 -1.5216  3.3692 -0.7466
    8MOL   H207 2461   4.999   5.005   2.811  1.5158  0.8989  0.8511
    8MOL   H208 2462   4.830   4.795   2.604 -2.3989  0.7446 -4.8859
    8MOL   H209 2463   4.726   4.690   2.685 -0.0236 -0.1243  0.8483
    8MOL   C210 2464   4.629   4.850   2.579  0.0022 -0.6938  0.1092
    8MOL   C211 2465   4.673   4.975   2.495  0.8174 -0.0659 -0.1416
    8MOL   C212 2466   4.659   5.104   2.547 -0.6114 -0.9140 -0.2725
    8MOL   C213 2467   4.732   5.208   2.478 -0.8134 -0.0968 -1.0288
    8MOL  Cl214 2468   4.742   5.372   2.538 -0.2521 -0.5209 -0.2130
    8MOL   C215 2469   4.808   5.176   2.366 -0.7760  0.1819  0.1739
    8MOL   C216 2470   4.802   5.054   2.308 -0.0050  0.2533 -0.2915
    8MOL   C217 2471   4.733   4.951   2.368 -0.1132  0.3357 -0.1899
    8MOL   C218 2472   4.558   4.737   2.499  0.1253 -0.3698  0.8714
    8MOL   H219 2473   4.554   4.892   2.645 -2.3967 -1.7495 -1.8938
    8MOL   H220 2474   4.620   5.127   2.645  0.5736 -2.0722  0.4854
    8MOL   H221 2475   4.871   5.253   2.322 -0.6311 -0.7072 -1.2087
    8MOL   H222 2476   4.857   5.034   2.217 -2.5885 -0.3378 -1.7871
    8MOL   H223 2477   4.743   4.852   2.326 -1.0775  1.1006 -2.3195
    8MOL   H224 2478   4.536   4.782   2.403  2.3934 -0.1669  0.4268
    8MOL   H225 2479   4.617   4.648   2.475 -0.8429 -1.2284  1.5925
    8MOL   C226 2480   4.436   4.695   2.562  0.9521 -0.2813  0.0641
    8MOL   C227 2481   4.334   4.640   2.459  0.0004  0.5517 -0.2459
    8MOL   C228 2482   4.352   4.527   2.380 -0.7486  0.5321  0.2242
    8MOL   C229 2483   4.260   4.487   2.288 -0.6873  0.1684 -0.0032
    8MOL  Cl230 2484   4.300   4.358   2.178 -0.1090 -0.3276 -0.1309
    8MOL   C231 2485   4.148   4.567   2.258  0.5066  0.6138  0.5322
    8MOL   C232 2486   4.124   4.688   2.330 -0.6411  0.2940  0.6936
    8MOL   C233 2487   4.219   4.721   2.433  0.9470  0.6196 -1.0308
    8MOL   C234 2488   4.454   4.591   2.680 -0.1629  0.1036  0.5893
    8MOL   H235 2489   4.378   4.771   2.613  2.4672  0.4122  0.7909
    8MOL   H236 2490   4.433   4.460   2.406 -1.4581 -0.2484  0.4202
    8MOL   H237 2491   4.077   4.535   2.183  0.6173 -0.0290  0.6961
    8MOL   H238 2492   4.046   4.753   2.295  0.0489  0.4563 -0.5526
    8MOL   H239 2493   4.210   4.811   2.492 -1.3454 -0.0737 -0.2531
    8MOL   H240 2494   4.487   4.506   2.621  1.1953 -0.6119  2.3577
    8MOL   H241 2495   4.529   4.623   2.752  1.6974 -2.1538 -0.2908
    8MOL   C242 2496   4.333   4.560   2.763  0.2859  0.6947  0.3261
    8MOL   C243 2497   4.364   4.441   2.849  0.2955  0.3594  0.0247
    8MOL   C244 2498   4.459   4.449   2.956 -0.7963 -0.5127 -0.9130
    8MOL   C245 2499   4.492   4.336   3.032 -0.5536  0.1020 -0.3063
    8MOL  Cl246 2500   4.606   4.357   3.160  0.1559 -0.0343 -0.0159
    8MOL   C247 2501   4.430   4.213   2.997 -0.0010  0.1624  0.0317
    8MOL   C248 2502   4.340   4.201   2.892  0.6548  0.3140  0.7744
    8MOL   C249 2503   4.307   4.315   2.813 -0.1948  0.1746 -0.0744
    8MOL   C250 2504   4.290   4.682   2.859 -0.5873  0.2889  0.2143
    8MOL   H251 2505   4.253   4.536   2.693  1.3434 -0.8838 -0.3745
    8MOL   H252 2506   4.507   4.543   2.979  1.3225 -1.4350 -1.4630
    8MOL   H253 2507   4.463   4.135   3.065  0.9098  2.2173  2.0055
    8MOL   H254 2508   4.279   4.112   2.879 -1.4363  1.8497 -0.1815
    8MOL   H255 2509   4.223   4.320   2.744  0.2745 -0.6326 -0.7061
    8MOL   H256 2510   4.344   4.687   2.954 -1.6319  0.4518  0.8007
    8MOL   H257 2511   4.314   4.782   2.821  0.5002  0.1882  0.6099
    8MOL   C258 2512   4.136   4.680   2.894 -0.6281  0.6662  0.4021
    8MOL   C259 2513   4.099   4.760   3.017  0.1090 -0.4482  0.2973
    8MOL   C260 2514   4.115   4.900   3.019 -0.8034 -0.3467  0.1852
    8MOL   C261 2515   4.072   4.972   3.128 -0.1671 -0.0511 -0.5565
    8MOL  Cl262 2516   4.074   5.148   3.130 -0.0121 -0.3504  0.1005
    8MOL   C263 2517   4.019   4.902   3.239  0.1952  0.0287 -0.7819
    8MOL   C264 2518   4.006   4.762   3.242  0.2916 -0.9123 -0.4411
    8MOL   C265 2519   4.056   4.692   3.135  0.5008 -0.0909 -0.3902
    8MOL   C266 2520   4.046   4.731   2.774 -0.1221  0.5482  0.0224
    8MOL   H267 2521   4.104   4.577   2.912  1.5861  0.0951  1.2104
    8MOL   H268 2522   4.147   4.956   2.933 -0.4447 -1.5171 -0.4542
    8MOL   H269 2523   3.969   4.964   3.313  1.5986  1.6491 -1.1583
    8MOL   H270 2524   3.960   4.716   3.328  0.6107  0.9720  0.7737
    8MOL   H271 2525   4.051   4.584   3.147 -0.3686 -0.3199 -2.6303
    8MOL   H272 2526   3.997   4.826   2.795 -1.8918  0.0332 -1.5901
    8MOL   H273 2527   4.100   4.758   2.683  0.8429 -0.3839  0.3166
    8MOL   C274 2528   3.924   4.642   2.740  0.1447  0.5092 -0.2604
    8MOL   C275 2529   3.807   4.726   2.680 -0.2217 -0.1149  0.6195
    8MOL   C276 2530   3.696   4.769   2.753  0.9838 -0.3253 -0.7968
    8MOL   C277 2531   3.604   4.857   2.700  0.2877  0.6023 -0.2558
    8MOL  Cl278 2532   3.473   4.925   2.793 -0.0742 -0.1144 -0.3572
    8MOL   C279 2533   3.611   4.889   2.563  0.2415  0.7343 -0.1706
    8MOL   C280 2534   3.719   4.850   2.491  0.2748 -0.2515 -0.6775
    8MOL   C281 2535   3.818   4.768   2.548 -0.2773 -0.1634  0.2651
    8MOL   C282 2536   3.962   4.509   2.663  0.2922  1.0234 -0.6904
    8MOL   H283 2537   3.885   4.609   2.836  0.6424 -0.7385 -0.4908
    8MOL   H284 2538   3.691   4.749   2.858 -0.9604 -0.2274 -0.8424
    8MOL   H285 2539   3.528   4.948   2.527 -0.8188 -0.0916  0.8666
    8MOL   H286 2540   3.715   4.879   2.387  2.1332 -0.7042 -0.8881
    8MOL   H287 2541   3.903   4.726   2.496  0.1824  1.4101 -0.2718
    8MOL   H288 2542   4.029   4.530   2.579 -1.7890 -2.0292 -3.2594
    8MOL   H289 2543   4.022   4.444   2.727 -1.0810  0.7326  0.3182
    8MOL   C290 2544   3.855   4.416   2.601  0.0363  0.3091  0.0738
    8MOL   C291 2545   3.920   4.305   2.517 -0.5138  0.2715  0.1337
    8MOL   C292 2546   3.994   4.196   2.574 -0.0588  0.2792 -0.9600
    8MOL   C293 2547   4.068   4.105   2.492 -0.0924 -0.0674  0.5290
    8MOL  Cl294 2548   4.176   3.986   2.557 -0.1674  0.0005 -0.3760
    8MOL   C295 2549   4.056   4.119   2.351  0.1041 -0.1735  0.3222
    8MOL   C296 2550   3.981   4.222   2.287  0.6859  0.5578 -0.6231
    8MOL   C297 2551   3.911   4.315   2.374  0.2725 -0.3730  0.4331
    8MOL   C298 2552   3.752   4.366   2.714 -0.1803 -0.6181 -0.6571
    8MOL   H299 2553   3.799   4.480   2.533 -2.0952  1.0863  2.4475
    8MOL   H300 2554   3.989   4.178   2.680 -1.5234 -0.1999 -1.1116
    8MOL   H301 2555   4.117   4.050   2.295 -0.3190 -0.2718 -0.0143
    8MOL   H302 2556   3.989   4.242   2.181 -0.7444 -0.7329 -1.0010
    8MOL   H303 2557   3.856   4.391   2.321  1.6955  1.1013  1.0091
    8MOL   H304 2558   3.804   4.308   2.790  1.7708  0.8296 -0.8545
    8MOL   H305 2559   3.725   4.461   2.759 -1.4287 -1.9061  1.4186
    8MOL   C306 2560   3.634   4.277   2.665  0.4149  0.0360 -0.0816
    8MOL   C307 2561   3.673   4.128   2.665  0.7835 -0.2460  0.4950
    8MOL   C308 2562   3.684   4.053   2.783  0.1455  0.1472  0.2890
    8MOL   C309 2563   3.719   3.917   2.779  0.0747  0.6031 -0.3949
    8MOL  Cl310 2564   3.708   3.842   2.934  0.1404  0.0390 -0.1915
    8MOL   C311 2565   3.749   3.848   2.659  0.1937  0.1009 -0.3761
    8MOL   C312 2566   3.728   3.921   2.540 -0.6065 -0.0888  0.5847
    8MOL   C313 2567   3.693   4.059   2.543 -0.0664 -0.0134  0.2863
    8MOL   C314 2568   3.498   4.287   2.731  0.4402 -0.1882 -0.0086
    8MOL   H315 2569   3.621   4.321   2.566  0.8038  0.7321  0.1753
    8MOL   H316 2570   3.658   4.098   2.877  1.2644 -0.7700  1.0466
    8MOL   H317 2571   3.782   3.745   2.652  0.4436  0.0941  0.7558
    8MOL   H318 2572   3.727   3.882   2.439 -1.4703  1.0157  0.1405
    8MOL   H319 2573   3.682   4.106   2.447  0.2974  0.2909  0.3960
    8MOL   H320 2574   3.478   4.252   2.832  1.7440  2.0927  1.0630
    8MOL   H321 2575   3.462   4.389   2.726 -0.7648 -0.7048 -2.9283
    8MOL   H322 2576   3.438   4.227   2.662 -0.5449  1.3970 -0.5467
    9MOL     C1 2577   0.237   5.669   8.036  0.1537 -0.3255 -0.2820
    9MOL     C2 2578   0.341   5.626   8.143  0.4612 -0.8397  0.2163
    9MOL     C3 2579   0.319   5.651   8.282 -0.5042 -0.0907  0.1302
    9MOL     C4 2580   0.415   5.608   8.379  0.5682  0.2333  0.4257
    9MOL    Cl5 2581   0.387   5.633   0.111  0.3008  0.2611  0.0244
    9MOL     C6 2582   0.534   5.553   8.330 -0.3582 -0.4551  0.4448
    9MOL     C7 2583   0.555   5.525   8.194  0.3392 -0.5344  0.4952
    9MOL     C8 2584   0.465   5.567   8.102  0.0226  0.9178 -0.1822
    9MOL     C9 2585   0.138   5.545   8.014 -0.7514 -0.5808 -0.3171
    9MOL    H10 2586   0.290   5.693   7.944 -0.5798  1.7906 -0.1659
    9MOL    H11 2587   0.218   5.683   8.304 -0.9406 -1.5632  0.3557
    9MOL    H12 2588   0.610   5.526   8.401  0.4320  0.6855  0.0555
    9MOL    H13 2589   0.658   5.501   8.171  0.0768 -2.2880  1.0310
    9MOL    H14 2590   0.495   5.569   7.998 -0.6094  3.3856 -0.3486
    9MOL    H15 2591   0.191   5.483   7.942 -0.3531  0.6801 -1.1312
    9MOL    H16 2592   0.143   5.492   8.109  1.7010 -3.0633 -1.7850
    9MOL    H17 2593   0.173   5.747   8.078 -2.6517 -3.4988  1.6086
    9MOL    C18 2594   8.426   5.570   7.964  0.3817  1.0462  0.7469
    9MOL    C19 2595   8.417   5.649   7.838  0.0011  0.0164  0.4048
    9MOL    C20 2596   0.055   5.606   7.717  0.3361  0.3483  0.4599
    9MOL    C21 2597   0.051   5.685   7.604  0.0599 -0.7515  0.8504
    9MOL   Cl22 2598   0.125   5.637   7.456 -0.3431 -0.0521 -0.2822
    9MOL    C23 2599   8.412   5.803   7.600 -0.1117 -0.0249 -0.2546
    9MOL    C24 2600   8.341   5.843   7.711 -0.3903 -0.0517 -0.2256
    9MOL    C25 2601   8.344   5.773   7.832  0.6676  0.2613 -0.7933
    9MOL    C26 2602   8.357   5.430   7.942 -0.6248  0.3439 -0.4754
    9MOL    H27 2603   8.376   5.633   8.038 -0.4527 -0.4055  1.4535
    9MOL    H28 2604   0.111   5.514   7.712 -0.1936  0.0779 -0.6827
    9MOL    H29 2605   8.416   5.867   7.513  1.9217 -0.1392 -0.2581
    9MOL    H30 2606   8.292   5.939   7.712 -1.9851 -0.8505 -0.0565
    9MOL    H31 2607   8.298   5.799   7.926  1.2537  2.1961 -1.0253
    9MOL    H32 2608   8.256   5.452   7.907 -0.3250  1.8967 -0.3868
    9MOL    H33 2609   8.415   5.381   7.864  0.3039  1.6638 -0.6351
    9MOL    C34 2610   8.346   5.335   8.066 -0.1222 -0.0998 -0.0384
    9MOL    C35 2611   8.246   5.391   8.166 -0.3565 -0.0632 -0.0793
    9MOL    C36 2612   8.294   5.449   8.284  0.4104 -0.1905  0.5356
    9MOL    C37 2613   8.205   5.514   8.380 -0.1504 -0.5107  0.3410
    9MOL   Cl38 2614   8.272   5.599   0.080  0.3678 -0.3784 -0.3587
    9MOL    C39 2615   8.067   5.501   8.360 -0.2376 -0.2639  0.7269
    9MOL    C40 2616   8.018   5.445   8.240  0.2658 -0.4673 -0.1162
    9MOL    C41 2617   8.108   5.384   8.147  0.1197 -1.1446 -0.4610
    9MOL    C42 2618   8.306   5.185   8.022 -0.1338 -1.0433  0.5275
    9MOL    H43 2619   8.434   5.319   8.128 -2.7804  0.1586  3.9286
    9MOL    H44 2620   8.400   5.465   8.293  0.4230  0.1835 -0.1963
    9MOL    H45 2621   7.999   5.536   0.001 -1.9569  0.9222 -1.3301
    9MOL    H46 2622   7.911   5.433   8.232  0.5080 -2.3602 -0.8746
    9MOL    H47 2623   8.056   5.332   8.068 -0.7110 -0.4080 -0.4086
    9MOL    H48 2624   8.280   5.119   8.104 -2.2959 -0.3375  0.4487
    9MOL    H49 2625   8.209   5.187   7.974  0.7158 -0.8685 -1.2332
    9MOL    C50 2626   8.407   5.113   7.930  0.5998  0.1777  0.2568
    9MOL    C51 2627   0.101   5.073   8.006  0.5439 -0.2450 -0.6400
    9MOL    C52 2628   0.092   4.976   8.108 -0.2307  0.2080 -0.6168
    9MOL    C53 2629   0.208   4.944   8.182  0.2807 -0.2379  0.0076
    9MOL   Cl54 2630   0.202   4.828   8.317  0.4136 -0.1068 -0.3920
    9MOL    C55 2631   0.330   5.003   8.158 -0.5643  0.2362 -0.0803
    9MOL    C56 2632   0.339   5.095   8.052  0.8892 -0.3365  0.1919
    9MOL    C57 2633   0.228   5.129   7.977 -0.5354  0.7037 -0.2741
    9MOL    C58 2634   8.347   4.989   7.857  0.1092  0.0836  0.2629
    9MOL    H59 2635   0.008   5.171   7.846  1.8312 -0.8774  0.0342
    9MOL    H60 2636   8.428   4.945   8.139  0.0409 -1.3849 -1.2897
    9MOL    H61 2637   0.420   4.973   8.209  0.3610 -1.0567 -2.4252
    9MOL    H62 2638   0.440   5.115   8.022  0.7224 -0.0540 -0.1890
    9MOL    H63 2639   0.239   5.203   7.899  0.7527  0.4121 -0.3894
    9MOL    H64 2640   8.421   4.915   7.827  0.8619 -0.1369  2.5323
    9MOL    H65 2641   8.288   4.936   7.933 -0.5232 -0.2468 -0.4596
    9MOL    C66 2642   8.259   5.023   7.735  0.2190 -0.3188 -0.0455
    9MOL    C67 2643   8.331   5.002   7.609  0.8474  0.2475  0.5206
    9MOL    C68 2644   8.373   5.113   7.531  0.1319  0.0118 -0.8264
    9MOL    C69 2645   0.008   5.090   7.411  0.1800 -0.7769 -0.2069
    9MOL   Cl70 2646   0.073   5.212   7.310 -0.2073  0.3097 -0.4657
    9MOL    C71 2647   0.019   4.961   7.360 -0.2224 -0.9143 -0.4189
    9MOL    C72 2648   8.401   4.853   7.428 -0.2040  0.3349 -0.1331
    9MOL    C73 2649   8.340   4.871   7.556  0.4186  1.0541  0.0374
    9MOL    C74 2650   8.123   4.960   7.727 -0.1595 -0.6291 -0.1240
    9MOL    H75 2651   8.251   5.131   7.741 -0.3994 -0.3073 -0.9296
    9MOL    H76 2652   8.346   5.213   7.563  1.5151  0.1216  0.0428
    9MOL    H77 2653   0.071   4.940   7.268  1.0441  2.0496 -0.4285
    9MOL    H78 2654   8.406   4.753   7.388 -0.0195 -0.2602  1.3549
    9MOL    H79 2655   8.296   4.787   7.608 -3.1894  2.4147 -0.6887
    9MOL    H80 2656   8.119   4.854   7.703 -1.3378 -0.7384  0.5139
    9MOL    H81 2657   8.086   4.951   7.829  0.3898  1.2164  0.2630
    9MOL    C82 2658   8.015   5.041   7.632 -0.0160 -0.2550  0.2350
    9MOL    C83 2659   7.891   4.944   7.615  0.3244  0.0380  0.4351
    9MOL    C84 2660   7.837   4.870   7.724 -0.3932 -0.2118 -0.7709
    9MOL    C85 2661   7.732   4.778   7.705 -0.1721  0.4999 -0.6213
    9MOL   Cl86 2662   7.666   4.676   7.830  0.4769 -0.0023  0.2479
    9MOL    C87 2663   7.662   4.777   7.585  0.3855  0.7839 -0.9027
    9MOL    C88 2664   7.710   4.852   7.479  0.1303 -1.2003 -0.5590
    9MOL    C89 2665   7.823   4.931   7.495  0.1475  0.0592 -0.1368
    9MOL    C90 2666   7.976   5.174   7.702 -0.0655  0.4523 -0.4310
    9MOL    H91 2667   8.060   5.063   7.536  2.7781 -0.8013  1.3752
    9MOL    H92 2668   7.873   4.888   7.824  0.1628  0.7321 -1.1350
    9MOL    H93 2669   7.577   4.716   7.557  1.5458 -1.1111 -0.3887
    9MOL    H94 2670   7.657   4.845   7.385  1.0342 -3.4291 -0.9427
    9MOL    H95 2671   7.864   4.980   7.408 -2.6421  1.6097 -0.6400
    9MOL    H96 2672   7.910   5.158   7.787  0.4039  1.1177  0.0566
    9MOL    H97 2673   8.056   5.224   7.755 -0.0992  1.6784 -1.5137
    9MOL    C98 2674   7.924   5.289   7.616 -0.1411 -0.2308  0.3033
    9MOL    C99 2675   7.880   5.398   7.718 -0.2644  0.6203 -0.0734
    9MOL   C100 2676   7.970   5.494   7.772  0.5958 -0.0279  0.2026
    9MOL   C101 2677   7.919   5.597   7.851  0.4142 -0.0766  0.0307
    9MOL  Cl102 2678   8.024   5.714   7.915  0.0153  0.1904  0.1877
    9MOL   C103 2679   7.783   5.608   7.884 -0.5158 -0.0649 -0.1964
    9MOL   C104 2680   7.696   5.517   7.823 -0.5683 -0.3252 -0.3112
    9MOL   C105 2681   7.748   5.417   7.744  0.7994 -0.2993 -0.5235
    9MOL   C106 2682   8.028   5.347   7.519  0.3317  0.7248 -0.1812
    9MOL   H107 2683   7.842   5.254   7.553 -0.2060  0.4091  0.0275
    9MOL   H108 2684   8.076   5.490   7.755  0.3525  0.4667 -1.5825
    9MOL   H109 2685   7.751   5.688   7.948 -2.4450 -0.5030 -0.5778
    9MOL   H110 2686   7.590   5.522   7.840 -0.3141 -0.2378  1.3964
    9MOL   H111 2687   7.679   5.349   7.696 -0.5646  0.2002  0.6893
    9MOL   H112 2688   8.123   5.366   7.569  0.8173 -0.6303 -0.5624
    9MOL   H113 2689   8.044   5.262   7.452  0.6205  0.9668 -0.4183
    9MOL   C114 2690   7.984   5.464   7.429 -0.0671 -0.4344 -0.6566
    9MOL   C115 2691   8.097   5.538   7.362 -0.1625  0.0390  0.2128
    9MOL   C116 2692   8.124   5.680   7.371 -0.6679 -0.8642 -0.0812
    9MOL   C117 2693   8.228   5.743   7.303 -1.2340  0.1248  0.0110
    9MOL  Cl118 2694   8.235   5.917   7.312  0.1254 -0.2784  0.1121
    9MOL   C119 2695   8.324   5.667   7.228 -0.0288  0.0582  0.0318
    9MOL   C120 2696   8.296   5.527   7.220  0.4670  0.2581 -0.3430
    9MOL   C121 2697   8.189   5.462   7.287  0.8941 -0.3282 -0.0903
    9MOL   C122 2698   7.876   5.424   7.325 -0.1043  0.0267 -0.4312
    9MOL   H123 2699   7.937   5.539   7.493 -1.4081 -1.4315 -0.4539
    9MOL   H124 2700   8.059   5.748   7.424 -1.5542 -0.7894 -1.2473
    9MOL   H125 2701   8.409   5.707   7.174 -0.1650 -1.3296 -1.2280
    9MOL   H126 2702   8.353   5.467   7.150 -0.2481 -0.4541 -0.3158
    9MOL   H127 2703   8.173   5.356   7.281 -1.6963  0.0934 -1.1722
    9MOL   H128 2704   7.900   5.328   7.279  1.7067  0.3671 -0.2379
    9MOL   H129 2705   7.783   5.403   7.378  1.1854 -0.0089  1.8840
    9MOL   C130 2706   7.846   5.518   7.202  0.4108 -0.2902  0.0288
    9MOL   C131 2707   7.929   5.504   7.082 -0.3120  0.2976 -0.2526
    9MOL   C132 2708   7.997   5.612   7.025 -0.7902 -0.1050  0.8282
    9MOL   C133 2709   8.058   5.596   6.899 -0.3329  0.6166 -0.1045
    9MOL  Cl134 2710   8.136   5.731   6.828  0.4376 -0.0661  0.1383
    9MOL   C135 2711   8.064   5.474   6.838  0.0706  0.1680  0.0831
    9MOL   C136 2712   8.008   5.359   6.896  0.2291  0.2422 -0.4208
    9MOL   C137 2713   7.942   5.376   7.022 -0.0404  0.2117  0.1387
    9MOL   C138 2714   7.703   5.524   7.149  0.5141  0.0453  0.5675
    9MOL   H139 2715   7.866   5.619   7.237  0.8799  1.4479 -4.8925
    9MOL   H140 2716   7.999   5.705   7.080  0.4149  1.4982 -1.8432
    9MOL   H141 2717   8.117   5.451   6.748 -0.6422 -3.9733  0.6277
    9MOL   H142 2718   7.999   5.264   6.844  1.2657 -0.1481  0.0899
    9MOL   H143 2719   7.884   5.293   7.061 -0.6438 -0.2469 -1.6748
    9MOL   H144 2720   7.696   5.599   7.071  0.9437  1.8853  2.2503
    9MOL   H145 2721   7.679   5.428   7.104  0.2839 -0.5047  1.8361
    9MOL   C146 2722   7.587   5.543   7.251  0.4230 -0.0688  0.7272
    9MOL   C147 2723   7.578   5.682   7.316 -0.5474  0.0529  0.3789
    9MOL   C148 2724   7.552   5.792   7.239  0.7189  0.1278  0.5009
    9MOL   C149 2725   7.556   5.922   7.296 -0.6359  0.0874  0.5345
    9MOL  Cl150 2726   7.498   6.061   7.203  0.0476  0.0007 -0.2469
    9MOL   C151 2727   7.590   5.939   7.431 -0.3004  1.0805 -0.0241
    9MOL   C152 2728   7.626   5.826   7.515  0.1186 -0.8922 -0.0386
    9MOL   C153 2729   7.610   5.700   7.453  0.0528 -0.1513  0.1405
    9MOL   C154 2730   7.452   5.496   7.207  0.0558  0.2531 -0.6565
    9MOL   H155 2731   7.597   5.480   7.340 -0.6227 -1.9915 -0.4711
    9MOL   H156 2732   7.541   5.779   7.132  3.3641  0.7317  0.1168
    9MOL   H157 2733   7.590   6.041   7.466 -0.9008  1.8483 -2.1846
    9MOL   H158 2734   7.657   5.838   7.617  2.6236  1.3778 -1.0061
    9MOL   H159 2735   7.634   5.618   7.519  1.2459  0.2765  0.2633
    9MOL   H160 2736   7.385   5.565   7.258  0.0700 -0.9878  1.0828
    9MOL   H161 2737   7.448   5.506   7.098 -0.2887 -2.7626 -0.9640
    9MOL   C162 2738   7.420   5.349   7.252 -0.0577 -0.4185 -0.6532
    9MOL   C163 2739   7.383   5.350   7.409 -0.4988  0.8997  0.4417
    9MOL   C164 2740   7.451   5.258   7.489  0.2809 -0.2124 -0.7947
    9MOL   C165 2741   7.418   5.257   7.623 -0.1455  0.1103 -0.2097
    9MOL  Cl166 2742   7.512   5.150   7.727 -0.3842  0.0545 -0.2433
    9MOL   C167 2743   7.315   5.344   7.675 -0.0574  0.0968  0.1464
    9MOL   C168 2744   7.245   5.431   7.590 -0.1754 -0.3244 -0.0487
    9MOL   C169 2745   7.283   5.435   7.455 -0.4678 -0.4440 -0.7340
    9MOL   C170 2746   7.294   5.303   7.162 -0.3034 -0.3696  0.0523
    9MOL   H171 2747   7.506   5.281   7.249 -1.3828 -2.1324 -0.6536
    9MOL   H172 2748   7.522   5.185   7.455 -0.3173 -1.1265 -0.0836
    9MOL   H173 2749   7.294   5.351   7.780  0.7574 -1.7836  0.4507
    9MOL   H174 2750   7.166   5.492   7.631  1.8552  1.5325  1.1680
    9MOL   H175 2751   7.211   5.485   7.393 -0.1034 -0.1739 -0.9369
    9MOL   H176 2752   7.209   5.368   7.183 -0.9906 -1.2529  0.0661
    9MOL   H177 2753   7.320   5.320   7.058 -2.7278  0.7770 -0.4247
    9MOL   C178 2754   7.258   5.155   7.174 -1.0561  0.6956 -0.0930
    9MOL   C179 2755   7.116   5.132   7.113 -0.3456 -0.0047  0.0667
    9MOL   C180 2756   7.005   5.107   7.196  0.4120 -0.4515  0.1089
    9MOL   C181 2757   6.883   5.077   7.136 -0.2133 -0.0222 -0.1531
    9MOL  Cl182 2758   6.747   5.048   7.240  0.0373  0.0901  0.2927
    9MOL   C183 2759   6.879   5.056   6.995  0.3889  0.0168 -0.1686
    9MOL   C184 2760   6.997   5.059   6.918 -0.0732  0.9656 -0.6392
    9MOL   C185 2761   7.113   5.107   6.975  0.5539  0.3296 -0.0564
    9MOL   C186 2762   7.363   5.047   7.136  0.1894 -0.3218 -0.2947
    9MOL   H187 2763   7.239   5.134   7.279 -0.8782  2.3752  0.2891
    9MOL   H188 2764   7.020   5.113   7.303 -2.7000  1.0612  0.5312
    9MOL   H189 2765   6.784   5.029   6.949 -0.4569  2.3058  0.2037
    9MOL   H190 2766   6.995   5.017   6.819 -1.1640 -0.4935 -0.0152
    9MOL   H191 2767   7.196   5.108   6.907  0.2445 -0.6546 -0.4602
    9MOL   H192 2768   7.377   5.059   7.029 -1.1900  0.6604 -0.3707
    9MOL   H193 2769   7.459   5.074   7.182 -1.2895  1.1981  2.0199
    9MOL   C194 2770   7.323   4.900   7.158 -0.7967 -1.0474  0.5827
    9MOL   C195 2771   7.371   4.796   7.055 -0.0960 -0.3595 -0.1504
    9MOL   C196 2772   7.296   4.680   7.027  0.3038  0.2424  0.1051
    9MOL   C197 2773   7.336   4.579   6.939  0.5391  0.6579  0.1956
    9MOL  Cl198 2774   7.233   4.440   6.911  0.0002  0.6454  0.1214
    9MOL   C199 2775   7.455   4.597   6.871  0.5513 -1.0549 -0.1446
    9MOL   C200 2776   7.537   4.712   6.890  0.2413 -0.2828  0.1010
    9MOL   C201 2777   7.501   4.808   6.985  0.3786  0.4386 -0.1387
    9MOL   C202 2778   7.354   4.859   7.307  0.1517 -0.2110 -0.2255
    9MOL   H203 2779   7.216   4.899   7.136 -0.3080 -0.1976 -2.0507
    9MOL   H204 2780   7.197   4.665   7.068  0.9987 -0.6816  1.4885
    9MOL   H205 2781   7.486   4.525   6.797  0.6231 -0.2357 -0.9133
    9MOL   H206 2782   7.634   4.708   6.842  1.3404  0.9124  2.1694
    9MOL   H207 2783   7.574   4.888   6.984 -0.5618  1.3476  1.3994
    9MOL   H208 2784   7.402   4.762   7.320 -0.2011 -0.1057  2.1308
    9MOL   H209 2785   7.433   4.923   7.347 -2.5952  3.3609 -0.2558
    9MOL   C210 2786   7.232   4.869   7.396  0.6921 -0.9225 -0.1938
    9MOL   C211 2787   7.139   4.752   7.369  0.5310 -0.2662  0.1152
    9MOL   C212 2788   7.158   4.622   7.433  0.2635 -0.4305  0.3638
    9MOL   C213 2789   7.070   4.514   7.417  0.2010  0.0897  0.8728
    9MOL  Cl214 2790   7.089   4.360   7.498  0.5257 -0.2858 -0.0402
    9MOL   C215 2791   6.963   4.524   7.328  0.1248  0.5155 -0.2936
    9MOL   C216 2792   6.938   4.643   7.268 -0.0994 -0.2531 -0.2461
    9MOL   C217 2793   7.023   4.755   7.284  0.4314 -0.7119 -0.5149
    9MOL   C218 2794   7.282   4.872   7.545 -0.6372 -0.7310  0.4012
    9MOL   H219 2795   7.174   4.958   7.372 -0.7495 -1.5625  0.8691
    9MOL   H220 2796   7.242   4.596   7.496  1.1321 -1.5300 -1.2409
    9MOL   H221 2797   6.898   4.443   7.298 -0.9627  1.6946 -1.1541
    9MOL   H222 2798   6.855   4.643   7.198 -0.5717 -0.9002  0.3090
    9MOL   H223 2799   7.005   4.844   7.225  2.8091  0.7721  0.9256
    9MOL   H224 2800   7.333   4.777   7.561 -3.4255 -2.4520 -0.5938
    9MOL   H225 2801   7.350   4.954   7.567 -3.0218  0.8238  2.2752
    9MOL   C226 2802   7.175   4.891   7.653 -0.0152 -0.3537 -0.2107
    9MOL   C227 2803   7.191   4.777   7.751 -0.1536  0.2583  0.1455
    9MOL   C228 2804   7.092   4.679   7.766  0.0484 -0.0600 -0.3489
    9MOL   C229 2805   7.104   4.583   7.874  0.2291 -0.3660 -0.1461
    9MOL  Cl230 2806   6.988   4.462   7.903 -0.2811 -0.0278  0.0066
    9MOL   C231 2807   7.217   4.588   7.960  0.2055  0.3796 -0.3911
    9MOL   C232 2808   7.318   4.680   7.940 -0.0781 -0.3443  0.8219
    9MOL   C233 2809   7.303   4.780   7.835 -0.2893 -1.2880  0.1222
    9MOL   C234 2810   7.171   5.037   7.716 -0.2692 -0.6803  0.4629
    9MOL   H235 2811   7.077   4.867   7.612 -0.7579  0.8622  0.8145
    9MOL   H236 2812   7.009   4.683   7.696 -0.6403 -0.5882  0.4237
    9MOL   H237 2813   7.225   4.519   8.043 -1.2058 -0.2493 -0.7529
    9MOL   H238 2814   7.405   4.693   8.002 -0.2386  3.0510  0.4306
    9MOL   H239 2815   7.388   4.845   7.818 -0.9312 -0.4035  0.2560
    9MOL   H240 2816   7.270   5.056   7.757  0.3664 -0.9706 -0.8978
    9MOL   H241 2817   7.163   5.119   7.645  3.6276  0.0542  0.7622
    9MOL   C242 2818   7.070   5.050   7.827 -0.5216  0.3862  0.2920
    9MOL   C243 2819   7.108   5.157   7.929 -0.2308  0.6626  0.0693
    9MOL   C244 2820   7.078   5.298   7.918 -0.4969  0.7636  0.2245
    9MOL   C245 2821   7.129   5.389   8.013  0.0718  0.3127  0.5202
    9MOL  Cl246 2822   7.122   5.560   7.975  0.2513 -0.5324  0.0507
    9MOL   C247 2823   7.198   5.351   8.131 -0.1917  0.0040  0.1122
    9MOL   C248 2824   7.209   5.210   8.150 -0.0027  0.3535 -0.3924
    9MOL   C249 2825   7.164   5.118   8.051 -0.9168  0.3809 -0.0842
    9MOL   C250 2826   6.928   5.067   7.770 -0.0725  0.2047 -0.0238
    9MOL   H251 2827   7.068   4.959   7.887  0.1365  0.1794  0.0102
    9MOL   H252 2828   7.026   5.343   7.835  0.4720  0.8501 -0.3321
    9MOL   H253 2829   7.240   5.420   8.203 -3.9295  0.8457  1.6265
    9MOL   H254 2830   7.255   5.181   8.243 -1.1669 -1.1141 -0.2584
    9MOL   H255 2831   7.183   5.013   8.069 -1.3723  0.2846 -0.1551
    9MOL   H256 2832   6.914   5.175   7.759 -0.3633  0.4632  2.5308
    9MOL   H257 2833   6.922   5.023   7.671 -1.1691 -0.3152  0.2657
    9MOL   C258 2834   6.807   5.004   7.851  0.2433  0.2792 -0.0305
    9MOL   C259 2835   6.824   5.002   7.997  0.5600  0.4983  0.6317
    9MOL   C260 2836   6.850   4.876   8.065  0.2009 -0.8675  0.5367
    9MOL   C261 2837   6.865   4.862   8.205  0.0669 -0.1536 -0.4807
    9MOL  Cl262 2838   6.901   4.697   8.260  0.0011  0.0794  0.2968
    9MOL   C263 2839   6.856   4.978   8.285 -1.0004  0.0773 -0.1817
    9MOL   C264 2840   6.840   5.103   8.216  0.2672  0.2992  0.0371
    9MOL   C265 2841   6.826   5.117   8.076  0.1652  0.2086 -0.6320
    9MOL   C266 2842   6.667   5.058   7.808  0.7456  0.2236 -0.1371
    9MOL   H267 2843   6.826   4.902   7.818  0.4775  0.6143 -0.9660
    9MOL   H268 2844   6.854   4.790   7.999 -1.6897  1.3267 -2.6013
    9MOL   H269 2845   6.886   4.976   8.389  2.3097  1.4140 -1.0366
    9MOL   H270 2846   6.850   5.192   8.277 -2.4179  1.2883 -0.8598
    9MOL   H271 2847   6.816   5.218   8.038  0.8808 -0.0485 -1.4975
    9MOL   H272 2848   6.593   5.049   7.888  0.7429  1.0928 -0.0398
    9MOL   H273 2849   6.685   5.162   7.779 -0.7962  0.7658  0.8142
    9MOL   C274 2850   6.603   4.977   7.693  0.7906 -0.0669  0.0798
    9MOL   C275 2851   6.590   4.826   7.711  0.2977 -0.1230  0.7590
    9MOL   C276 2852   6.664   4.733   7.627  0.1514 -0.5897  0.0745
    9MOL   C277 2853   6.652   4.596   7.649  0.1309  0.0719 -0.4005
    9MOL  Cl278 2854   6.765   4.485   7.577 -0.3150 -0.3714  0.2369
    9MOL   C279 2855   6.564   4.550   7.746  0.1509 -0.6018  0.1151
    9MOL   C280 2856   6.494   4.639   7.829  0.6749 -0.4820 -0.3041
    9MOL   C281 2857   6.510   4.774   7.809 -0.1060 -1.0483  0.0320
    9MOL   C282 2858   6.472   5.051   7.650  0.7681  0.1845  0.5781
    9MOL   H283 2859   6.669   4.988   7.607  2.1528 -0.5663  1.0439
    9MOL   H284 2860   6.754   4.768   7.580  0.8807 -0.7301  1.3233
    9MOL   H285 2861   6.549   4.446   7.773 -0.9030 -1.4021 -3.3159
    9MOL   H286 2862   6.428   4.595   7.902  1.5028  1.2746  1.5486
    9MOL   H287 2863   6.457   4.835   7.880  1.6794  0.2925  0.2502
    9MOL   H288 2864   6.406   5.063   7.736  2.0994 -2.4800  2.0608
    9MOL   H289 2865   6.497   5.152   7.618  1.2190  0.4343  1.6790
    9MOL   C290 2866   6.384   4.987   7.536  0.1645  0.3859  0.8871
    9MOL   C291 2867   6.284   4.880   7.593  0.2910 -0.5939 -0.1865
    9MOL   C292 2868   6.181   4.918   7.684  0.5392  0.3294 -0.1845
    9MOL   C293 2869   6.079   4.827   7.716  0.4979 -0.5448 -0.5817
    9MOL  Cl294 2870   5.949   4.887   7.821 -0.4819  0.1535 -0.2172
    9MOL   C295 2871   6.078   4.692   7.668  0.6855 -0.0299  0.0327
    9MOL   C296 2872   6.178   4.656   7.577 -0.2842 -0.6702  0.0514
    9MOL   C297 2873   6.281   4.744   7.541  0.3479 -0.3590 -0.2517
    9MOL   C298 2874   6.309   5.100   7.454 -0.0654 -0.6534  0.1459
    9MOL   H299 2875   6.449   4.934   7.466  2.7715  1.3760  2.5056
    9MOL   H300 2876   6.180   5.021   7.717  2.1871 -0.2223  1.6932
    9MOL   H301 2877   6.004   4.622   7.703  0.5444 -0.6345 -1.4418
    9MOL   H302 2878   6.188   4.556   7.536 -1.5322 -0.6217 -0.4053
    9MOL   H303 2879   6.353   4.714   7.467  0.0263  0.3859 -0.8793
    9MOL   H304 2880   6.238   5.155   7.515 -0.0926 -0.9849  0.4140
    9MOL   H305 2881   6.379   5.178   7.422  1.1127 -1.1671  1.3997
    9MOL   C306 2882   6.231   5.059   7.327  0.0407  0.6426  0.1127
    9MOL   C307 2883   6.093   4.992   7.355 -0.1354  0.5438 -0.1446
    9MOL   C308 2884   6.002   5.045   7.440  0.4173  0.0757  0.2364
    9MOL   C309 2885   5.886   4.969   7.477 -0.2341 -0.4239  0.1299
    9MOL  Cl310 2886   5.776   5.039   7.594  0.0291  0.1764 -0.1399
    9MOL   C311 2887   5.869   4.842   7.422  0.0558  0.1917 -0.1298
    9MOL   C312 2888   5.964   4.782   7.335 -0.5714  0.0519 -0.2305
    9MOL   C313 2889   6.069   4.862   7.301 -0.5589  0.0230 -0.0288
    9MOL   C314 2890   6.215   5.171   7.227 -0.4838  0.0726 -0.1562
    9MOL   H315 2891   6.297   4.990   7.275 -1.0937 -0.5703  0.2882
    9MOL   H316 2892   6.013   5.147   7.475  0.4500  0.4591 -0.8693
    9MOL   H317 2893   5.791   4.784   7.469  0.0777 -0.2121 -0.5846
    9MOL   H318 2894   5.953   4.679   7.306 -0.8780 -0.1170  0.4928
    9MOL   H319 2895   6.139   4.820   7.231  1.0914  0.8703  1.0800
    9MOL   H320 2896   6.155   5.254   7.265  0.4271  1.5473 -1.8704
    9MOL   H321 2897   6.312   5.212   7.202  0.2571 -3.0631 -2.7702
    9MOL   H322 2898   6.167   5.144   7.133  0.4506 -0.9859 -0.3349
   10MOL     C1 2899   6.691   5.576   2.228 -0.3050  0.5659 -0.5433
   10MOL     C2 2900   6.626   5.463   2.156  0.7881 -1.2236  0.1946
   10MOL     C3 2901   6.542   5.373   2.220  0.2122 -0.1110  0.0351
   10MOL     C4 2902   6.474   5.272   2.149  0.7110 -0.9540 -0.5313
   10MOL    Cl5 2903   6.397   5.144   2.242  0.1784 -0.3377 -0.3541
   10MOL     C6 2904   6.481   5.268   2.010  0.5258 -0.0076  0.1928
   10MOL     C7 2905   6.557   5.362   1.941  0.1573 -0.0992  0.8013
   10MOL     C8 2906   6.629   5.460   2.014  0.0824  0.1364  0.5757
   10MOL     C9 2907   6.752   5.538   2.364 -0.9266 -0.6265 -0.8124
   10MOL    H10 2908   6.620   5.656   2.252 -2.8205 -1.8768  0.4848
   10MOL    H11 2909   6.534   5.381   2.327  1.4108  3.0868 -0.0684
   10MOL    H12 2910   6.439   5.191   1.947  2.0542  0.1257 -1.0255
   10MOL    H13 2911   6.559   5.361   1.833 -0.7238  1.7851  0.7287
   10MOL    H14 2912   6.686   5.530   1.955  0.1693 -0.7923 -0.4511
   10MOL    H15 2913   6.669   5.494   2.420 -0.7123 -2.3657 -1.8048
   10MOL    H16 2914   6.832   5.465   2.352 -0.0306  0.3950 -1.1655
   10MOL    H17 2915   6.760   5.635   2.168 -1.0811  0.8866 -1.1402
   10MOL    C18 2916   6.818   5.669   2.428  0.6920 -0.6874  0.1151
   10MOL    C19 2917   6.720   5.789   2.432 -0.1966  0.6827 -0.4028
   10MOL    C20 2918   6.752   5.906   2.357  0.4483  0.3074  0.2708
   10MOL    C21 2919   6.665   6.011   2.351 -0.2716 -0.3272 -0.0082
   10MOL   Cl22 2920   6.682   6.141   2.242 -0.4629 -0.5818 -0.2348
   10MOL    C23 2921   6.552   6.003   2.437  0.5798 -0.0917 -0.4854
   10MOL    C24 2922   6.524   5.890   2.515 -0.2154  0.1174 -0.0730
   10MOL    C25 2923   6.602   5.778   2.509 -0.7860  0.2838 -0.3401
   10MOL    C26 2924   6.887   5.636   2.555 -0.3300 -0.4218 -0.5383
   10MOL    H27 2925   6.898   5.701   2.361 -1.6029  2.7114 -1.1330
   10MOL    H28 2926   6.841   5.911   2.297 -1.3168  3.8078 -2.2856
   10MOL    H29 2927   6.485   6.087   2.451  0.8392  0.0718 -0.2299
   10MOL    H30 2928   6.440   5.874   2.581  0.6358 -2.3066  0.4720
   10MOL    H31 2929   6.579   5.688   2.563  0.6549 -0.4408 -0.9030
   10MOL    H32 2930   6.820   5.568   2.608  0.7372 -1.3795 -0.3944
   10MOL    H33 2931   6.979   5.581   2.534  1.6418  1.3693  3.0648
   10MOL    C34 2932   6.935   5.757   2.647  0.6692 -0.3413 -0.2075
   10MOL    C35 2933   6.928   5.704   2.796 -0.3599 -0.1853 -0.0690
   10MOL    C36 2934   6.987   5.577   2.825 -0.1676  0.5758 -0.4038
   10MOL    C37 2935   6.997   5.539   2.962  0.2122  0.0156 -0.5161
   10MOL   Cl38 2936   7.053   5.385   3.022 -0.3741 -0.3521 -0.0218
   10MOL    C39 2937   6.943   5.620   3.065  0.0072  0.2527  0.1047
   10MOL    C40 2938   6.875   5.739   3.033 -0.1947  0.0052 -0.2040
   10MOL    C41 2939   6.876   5.784   2.898  0.2646  0.6933 -0.8073
   10MOL    C42 2940   7.073   5.815   2.618  0.1530 -0.4714 -0.1080
   10MOL    H43 2941   6.860   5.836   2.642  0.4711 -0.3084  2.5884
   10MOL    H44 2942   7.053   5.524   2.758  1.5853 -0.7989  2.3249
   10MOL    H45 2943   6.938   5.591   3.169  1.1585  1.7930  0.6051
   10MOL    H46 2944   6.837   5.802   3.112  0.7881  1.7397 -1.0704
   10MOL    H47 2945   6.840   5.884   2.878 -1.5624  0.0427 -0.9016
   10MOL    H48 2946   7.147   5.818   2.698  2.2811 -0.6054 -2.0228
   10MOL    H49 2947   7.126   5.755   2.544 -1.1018 -1.0886 -0.5237
   10MOL    C50 2948   7.055   5.963   2.570 -1.1972  0.2771 -0.0865
   10MOL    C51 2949   6.993   6.044   2.686  0.5117 -0.2284 -0.1182
   10MOL    C52 2950   6.863   6.096   2.665  0.0799 -0.3687  0.3968
   10MOL    C53 2951   6.813   6.192   2.748 -0.4199 -0.7008  0.3290
   10MOL   Cl54 2952   6.663   6.266   2.700 -0.1964  0.1554  0.1769
   10MOL    C55 2953   6.879   6.227   2.867  0.9038 -0.2644  0.0739
   10MOL    C56 2954   7.004   6.169   2.894  0.2420  0.0663  0.2093
   10MOL    C57 2955   7.062   6.087   2.797 -0.6185  0.4027 -0.9035
   10MOL    C58 2956   7.185   6.023   2.510  0.4341  0.6536  0.6112
   10MOL    H59 2957   6.980   5.949   2.492 -1.6744  0.6059  0.3186
   10MOL    H60 2958   6.804   6.083   2.575  1.0966 -0.2831 -0.2856
   10MOL    H61 2959   6.844   6.308   2.929  0.1041 -0.6354  0.1259
   10MOL    H62 2960   7.051   6.201   2.986  0.6482 -1.6863  0.6280
   10MOL    H63 2961   7.154   6.036   2.823 -2.6147 -2.4408  0.9538
   10MOL    H64 2962   7.235   6.071   2.594  1.7018  1.8458 -0.7930
   10MOL    H65 2963   7.252   5.948   2.468  0.6654  1.4446 -0.4577
   10MOL    C66 2964   7.158   6.132   2.404 -0.6654  0.4215  0.3549
   10MOL    C67 2965   7.094   6.255   2.463 -0.1491  0.2412 -0.1100
   10MOL    C68 2966   6.974   6.299   2.407  0.0329 -0.2132  0.1772
   10MOL    C69 2967   6.900   6.406   2.472  0.2275  0.3965 -0.2512
   10MOL   Cl70 2968   6.755   6.464   2.399 -0.2468 -0.2852  0.0028
   10MOL    C71 2969   6.956   6.480   2.576 -0.1441 -0.1628 -0.1049
   10MOL    C72 2970   7.089   6.445   2.614 -0.1005  0.6233  0.8442
   10MOL    C73 2971   7.157   6.333   2.563 -0.5803  0.4325  0.1900
   10MOL    C74 2972   7.285   6.169   2.325  0.6906  0.1696 -1.1242
   10MOL    H75 2973   7.089   6.085   2.334 -1.1094  1.5107  0.0565
   10MOL    H76 2974   6.934   6.262   2.314 -1.3770 -2.8942  1.8045
   10MOL    H77 2975   6.904   6.571   2.606  2.5701  0.7182  2.1364
   10MOL    H78 2976   7.151   6.501   2.682  1.6424  0.5125 -0.6432
   10MOL    H79 2977   7.254   6.296   2.594 -1.0129  0.6768  1.9207
   10MOL    H80 2978   7.365   6.199   2.393 -0.0805 -0.3763  0.0372
   10MOL    H81 2979   7.318   6.072   2.287  1.5603  0.8460 -2.1342
   10MOL    C82 2980   7.263   6.269   2.216 -0.3003  0.1855  0.5863
   10MOL    C83 2981   7.401   6.322   2.177 -0.4983 -0.3297  0.5307
   10MOL    C84 2982   7.433   6.453   2.211 -0.4557  0.5583 -0.0130
   10MOL    C85 2983   7.564   6.500   2.182  0.0671  1.0171 -0.5590
   10MOL   Cl86 2984   7.611   6.663   2.216 -0.1308 -0.1097 -0.2055
   10MOL    C87 2985   7.652   6.414   2.115 -0.5624 -0.0545 -0.2895
   10MOL    C88 2986   7.610   6.289   2.070 -0.1523 -0.3154  0.2225
   10MOL    C89 2987   7.488   6.238   2.113 -0.4334 -0.1618 -0.0249
   10MOL    C90 2988   7.189   6.207   2.097 -0.2944 -0.1706  1.2400
   10MOL    H91 2989   7.204   6.350   2.258  0.5312  1.5353 -0.8130
   10MOL    H92 2990   7.361   6.507   2.270 -0.2151  1.8865 -0.9138
   10MOL    H93 2991   7.750   6.452   2.091 -1.2607  1.4330 -0.8404
   10MOL    H94 2992   7.671   6.229   2.003 -0.8833  0.9924 -1.6516
   10MOL    H95 2993   7.460   6.137   2.084  0.6490 -0.6949  0.7409
   10MOL    H96 2994   7.243   6.115   2.076  1.3148  1.1049 -0.3043
   10MOL    H97 2995   7.086   6.189   2.129 -1.7276  0.9711 -2.4597
   10MOL    C98 2996   7.183   6.290   1.963  0.4709  0.1598 -0.2397
   10MOL    C99 2997   7.130   6.200   1.857  0.3078 -0.1220  0.2577
   10MOL   C100 2998   6.991   6.165   1.869 -0.5123  0.5829 -0.2819
   10MOL   C101 2999   6.943   6.057   1.789  0.4606  0.2430 -0.3468
   10MOL  Cl102 3000   6.798   5.987   1.834 -0.1486  0.1553  0.0966
   10MOL   C103 3001   7.030   5.994   1.703  0.3845  0.4274 -0.3445
   10MOL   C104 3002   7.168   6.021   1.701  0.4660 -0.8649 -0.2604
   10MOL   C105 3003   7.221   6.125   1.777  0.1283 -0.1308 -0.5852
   10MOL   C106 3004   7.106   6.422   1.986  0.5045 -0.7537  0.0272
   10MOL   H107 3005   7.290   6.310   1.951  0.4429 -0.0616 -0.8768
   10MOL   H108 3006   6.929   6.210   1.945 -0.6295  0.0503 -0.0656
   10MOL   H109 3007   6.981   5.914   1.650 -0.4354 -0.3400  1.5404
   10MOL   H110 3008   7.245   5.964   1.650  1.9061  3.5235 -3.2488
   10MOL   H111 3009   7.328   6.133   1.786  0.1455 -1.1649  0.2234
   10MOL   H112 3010   7.005   6.402   2.023 -0.9405  3.5479 -1.2454
   10MOL   H113 3011   7.152   6.471   2.072 -2.2908  0.6981  0.7781
   10MOL   C114 3012   7.100   6.528   1.868 -0.2223  0.3464  0.1701
   10MOL   C115 3013   7.239   6.537   1.814 -0.6317 -0.0909  0.3532
   10MOL   C116 3014   7.290   6.456   1.712 -0.1576  0.3271 -0.2552
   10MOL   C117 3015   7.422   6.444   1.679 -0.0017 -0.1473  0.2810
   10MOL  Cl118 3016   7.468   6.314   1.579  0.4311  0.0012 -0.2997
   10MOL   C119 3017   7.515   6.532   1.740  0.1275 -0.3638  0.1730
   10MOL   C120 3018   7.459   6.633   1.824 -0.5783  0.4578 -0.0002
   10MOL   C121 3019   7.321   6.634   1.862  0.1551 -0.3188  0.4319
   10MOL   C122 3020   6.992   6.510   1.750  0.1589 -0.6783 -0.0424
   10MOL   H123 3021   7.075   6.624   1.913 -1.8096 -0.8621  1.9336
   10MOL   H124 3022   7.224   6.384   1.664 -0.1247  1.3099 -1.7981
   10MOL   H125 3023   7.618   6.522   1.710  0.7001  1.3133  1.5041
   10MOL   H126 3024   7.531   6.698   1.872  0.2315  1.0401 -1.9515
   10MOL   H127 3025   7.283   6.702   1.937  0.1512  0.9216 -0.6813
   10MOL   H128 3026   7.013   6.578   1.667  0.7159  0.1926  0.8100
   10MOL   H129 3027   7.001   6.410   1.709 -0.3724 -0.5820 -0.4125
   10MOL   C130 3028   6.846   6.518   1.781  0.8052 -0.0603  0.0500
   10MOL   C131 3029   6.819   6.655   1.851  0.2416  0.2825  0.3057
   10MOL   C132 3030   6.831   6.780   1.783  0.3546  0.4029  0.1968
   10MOL   C133 3031   6.808   6.900   1.856  0.6149 -0.6232  0.4138
   10MOL  Cl134 3032   6.818   7.051   1.770  0.1260  0.3491  0.1727
   10MOL   C135 3033   6.767   6.903   1.990  0.3680 -0.3543 -0.1427
   10MOL   C136 3034   6.753   6.783   2.060  0.0771  0.8246  0.3446
   10MOL   C137 3035   6.783   6.660   1.988  0.2397 -0.4793 -1.2601
   10MOL   C138 3036   6.764   6.494   1.654 -0.2727 -0.6651  0.3778
   10MOL   H139 3037   6.818   6.448   1.860 -1.3479  0.2260 -0.4153
   10MOL   H140 3038   6.853   6.785   1.678 -0.8338 -2.2235 -0.1999
   10MOL   H141 3039   6.744   7.002   2.028  1.3455 -0.5675  1.0295
   10MOL   H142 3040   6.727   6.784   2.165 -0.4529 -2.6613  0.3125
   10MOL   H143 3041   6.762   6.568   2.039 -2.7493  0.0399 -1.4660
   10MOL   H144 3042   6.700   6.581   1.635 -0.7406 -0.9948  0.4432
   10MOL   H145 3043   6.825   6.496   1.564 -3.7251 -0.1178 -2.0493
   10MOL   C146 3044   6.677   6.375   1.648 -0.0237 -0.1581 -0.5369
   10MOL   C147 3045   6.564   6.382   1.751  0.0041 -0.4187  0.0057
   10MOL   C148 3046   6.477   6.493   1.753 -0.2028 -0.7519  0.3447
   10MOL   C149 3047   6.383   6.500   1.852  0.0021 -0.6067  0.5959
   10MOL  Cl150 3048   6.272   6.628   1.849  0.3374 -0.0753 -0.3265
   10MOL   C151 3049   6.359   6.395   1.944  0.6874  0.4075 -0.8038
   10MOL   C152 3050   6.444   6.281   1.943  0.2355 -0.6657 -0.4308
   10MOL   C153 3051   6.554   6.282   1.854  0.0971  0.3402  0.7032
   10MOL   C154 3052   6.607   6.367   1.506  0.4989  0.6134 -0.3091
   10MOL   H155 3053   6.739   6.287   1.659  0.7440  0.1962 -1.8823
   10MOL   H156 3054   6.484   6.565   1.673 -0.1214 -0.8160  0.2936
   10MOL   H157 3055   6.275   6.399   2.012  0.5851 -0.7679 -0.8533
   10MOL   H158 3056   6.431   6.197   2.009 -0.7151 -1.5275 -1.6674
   10MOL   H159 3057   6.621   6.197   1.854  1.4680  1.4155  1.0638
   10MOL   H160 3058   6.576   6.465   1.470 -2.1442  0.6935  2.0571
   10MOL   H161 3059   6.688   6.340   1.437  0.7892 -2.2266  1.0605
   10MOL   C162 3060   6.486   6.276   1.484 -0.6150  0.2291 -0.5445
   10MOL   C163 3061   6.415   6.323   1.359  0.4240  0.4355  0.2165
   10MOL   C164 3062   6.434   6.270   1.236 -0.0204  0.5205  0.3913
   10MOL   C165 3063   6.356   6.321   1.124  0.0582 -0.7027 -0.4374
   10MOL  Cl166 3064   6.395   6.269   0.966 -0.1763 -0.2657 -0.3975
   10MOL   C167 3065   6.249   6.410   1.149 -0.4744 -0.3267 -0.2037
   10MOL   C168 3066   6.231   6.470   1.274 -0.6275 -0.4265 -0.0742
   10MOL   C169 3067   6.322   6.429   1.380 -0.2539  0.6438  0.3314
   10MOL   C170 3068   6.545   6.128   1.473 -0.5183 -0.1951 -0.1350
   10MOL   H171 3069   6.415   6.276   1.567 -0.5507  1.3378 -0.4820
   10MOL   H172 3070   6.503   6.188   1.221 -0.2716 -0.0921  2.4220
   10MOL   H173 3071   6.181   6.437   1.069 -1.8187  0.2506  1.0961
   10MOL   H174 3072   6.169   6.558   1.287  0.6413  0.6315 -1.0573
   10MOL   H175 3073   6.312   6.468   1.480  0.4837 -0.4083  0.8294
   10MOL   H176 3074   6.613   6.116   1.389 -0.2903 -1.3298  0.2131
   10MOL   H177 3075   6.616   6.107   1.553  0.2840  0.4394 -0.6712
   10MOL   C178 3076   6.436   6.020   1.471 -0.2790  0.4683  0.0737
   10MOL   C179 3077   6.492   5.886   1.446 -0.2858  0.4774 -0.7833
   10MOL   C180 3078   6.549   5.803   1.549  0.1661  0.6502 -0.4316
   10MOL   C181 3079   6.597   5.678   1.513  0.3576 -0.3036  0.3565
   10MOL  Cl182 3080   6.661   5.579   1.647 -0.2972 -0.3031  0.4515
   10MOL   C183 3081   6.611   5.632   1.380 -0.4617  0.4033  0.7850
   10MOL   C184 3082   6.545   5.705   1.284  0.2273 -0.5252  0.6608
   10MOL   C185 3083   6.489   5.832   1.315  0.7402  0.0054  0.3757
   10MOL   C186 3084   6.346   6.023   1.596 -0.6663  0.4012  0.6443
   10MOL   H187 3085   6.378   6.030   1.379 -1.9665 -0.0834  1.0604
   10MOL   H188 3086   6.557   5.833   1.653 -0.4085 -1.3861  0.2284
   10MOL   H189 3087   6.665   5.546   1.345  0.0348  1.0425 -0.0636
   10MOL   H190 3088   6.545   5.669   1.182  1.6095 -0.5324  0.6631
   10MOL   H191 3089   6.449   5.896   1.238  0.1211  0.7428  1.3036
   10MOL   H192 3090   6.321   5.919   1.620  0.0123  0.0680 -0.1020
   10MOL   H193 3091   6.399   6.053   1.686  1.6883 -0.6376 -0.3729
   10MOL   C194 3092   6.211   6.108   1.584 -0.6222  0.4276  0.0723
   10MOL   C195 3093   6.107   6.036   1.498 -0.0925 -0.4800  0.7214
   10MOL   C196 3094   6.059   6.096   1.378  0.0374  0.2353  0.5605
   10MOL   C197 3095   5.949   6.043   1.308 -0.3875 -0.6641  0.1183
   10MOL  Cl198 3096   5.899   6.115   1.161 -0.0353 -0.3238 -0.0585
   10MOL   C199 3097   5.888   5.921   1.356 -0.1741  0.4150  0.4163
   10MOL   C200 3098   5.942   5.859   1.471  0.2739  0.6608  0.6932
   10MOL   C201 3099   6.051   5.913   1.541  0.0945 -0.8101 -0.4066
   10MOL   C202 3100   6.165   6.143   1.729  0.0630  0.0042 -0.8600
   10MOL   H203 3101   6.243   6.202   1.540  2.1449  0.1825  1.4767
   10MOL   H204 3102   6.099   6.193   1.355 -1.2496  0.9143  1.1467
   10MOL   H205 3103   5.809   5.880   1.293  1.4413  0.0347 -1.4113
   10MOL   H206 3104   5.912   5.758   1.493  0.3893  0.2526 -1.0087
   10MOL   H207 3105   6.092   5.862   1.627 -0.3282 -1.0326 -0.3346
   10MOL   H208 3106   6.154   6.051   1.787  0.1871  0.5430  0.0150
   10MOL   H209 3107   6.240   6.206   1.776 -0.9020  1.2558 -0.9734
   10MOL   C210 3108   6.028   6.208   1.743 -0.2433  0.7501 -0.3892
   10MOL   C211 3109   5.995   6.217   1.891 -0.5393 -0.8301 -0.1560
   10MOL   C212 3110   6.000   6.336   1.966 -0.0784  0.2300  0.8282
   10MOL   C213 3111   5.963   6.339   2.104  0.0724 -0.2969  0.0589
   10MOL  Cl214 3112   5.954   6.487   2.194 -0.0962 -0.2179  0.6271
   10MOL   C215 3113   5.937   6.219   2.163  0.6948  0.5700 -0.2016
   10MOL   C216 3114   5.934   6.102   2.096  0.3261  0.1427  0.1824
   10MOL   C217 3115   5.960   6.095   1.958  0.8398 -0.6535  0.1968
   10MOL   C218 3116   6.020   6.345   1.665 -0.4096  0.0511  0.7114
   10MOL   H219 3117   5.953   6.144   1.697  0.2917 -0.0140 -0.2053
   10MOL   H220 3118   6.012   6.435   1.924  2.5854  0.3589  1.7539
   10MOL   H221 3119   5.898   6.225   2.263  2.0984 -0.8863  0.4542
   10MOL   H222 3120   5.920   6.016   2.159 -1.3728 -0.1205 -0.5244
   10MOL   H223 3121   5.953   6.001   1.905 -1.5484 -0.8629  0.7945
   10MOL   H224 3122   6.090   6.418   1.705  0.3934  0.0122 -0.5955
   10MOL   H225 3123   6.048   6.340   1.560  1.1783 -2.9049  1.2213
   10MOL   C226 3124   5.882   6.406   1.664 -0.3902  0.1570  0.1040
   10MOL   C227 3125   5.898   6.556   1.648  0.7798 -0.2927  0.0253
   10MOL   C228 3126   5.927   6.620   1.527  0.0918 -0.6842 -0.1903
   10MOL   C229 3127   5.960   6.758   1.534  0.1137 -0.4760 -0.1923
   10MOL  Cl230 3128   5.994   6.845   1.392  0.1585  0.0708  0.0547
   10MOL   C231 3129   5.966   6.831   1.653  0.6783 -0.9133 -0.0581
   10MOL   C232 3130   5.936   6.770   1.770 -0.3812 -0.7970 -1.1778
   10MOL   C233 3131   5.901   6.636   1.763 -0.4304  0.8067  0.2335
   10MOL   C234 3132   5.788   6.351   1.549 -0.0437 -0.5614  0.2443
   10MOL   H235 3133   5.831   6.377   1.756  1.2320 -0.4926  0.8152
   10MOL   H236 3134   5.927   6.570   1.432  1.5569 -1.2793  0.1064
   10MOL   H237 3135   6.013   6.928   1.652 -0.7049 -0.2281 -0.5891
   10MOL   H238 3136   5.938   6.816   1.868  1.8561 -1.2454 -0.9893
   10MOL   H239 3137   5.869   6.597   1.858 -0.9194  1.7878  0.4780
   10MOL   H240 3138   5.817   6.395   1.453  0.6434 -0.0335  0.6936
   10MOL   H241 3139   5.809   6.245   1.533  0.4713 -0.4912  0.4532
   10MOL   C242 3140   5.639   6.367   1.574  0.3047 -0.0840  0.6028
   10MOL   C243 3141   5.599   6.507   1.621  0.7745  0.5215 -0.6160
   10MOL   C244 3142   5.597   6.610   1.528  0.2121  0.1134  0.0399
   10MOL   C245 3143   5.555   6.739   1.564 -0.0423  0.2488  0.1349
   10MOL  Cl246 3144   5.528   6.869   1.457  0.3613  0.1026  0.4058
   10MOL   C247 3145   5.554   6.769   1.700  0.5411  0.6960  0.1362
   10MOL   C248 3146   5.559   6.663   1.799  0.7314  0.2083  0.6470
   10MOL   C249 3147   5.576   6.530   1.762 -0.3166 -0.4451 -0.0602
   10MOL   C250 3148   5.548   6.319   1.463 -0.7221 -0.1499 -0.4111
   10MOL   H251 3149   5.629   6.299   1.658  0.3253  0.3125  0.9261
   10MOL   H252 3150   5.612   6.594   1.423 -0.4659  1.6152 -0.3025
   10MOL   H253 3151   5.518   6.866   1.730  0.9602  0.6396  0.8558
   10MOL   H254 3152   5.519   6.687   1.896 -0.7699  1.5601 -0.2877
   10MOL   H255 3153   5.596   6.449   1.830  0.6040  0.7771  1.1623
   10MOL   H256 3154   5.574   6.371   1.371 -0.1266 -1.4193 -0.9654
   10MOL   H257 3155   5.582   6.221   1.431 -0.6149 -0.5245  0.8227
   10MOL   C258 3156   5.388   6.323   1.481 -0.6612 -0.5413  0.2563
   10MOL   C259 3157   5.313   6.334   1.352  0.0692 -0.3012 -0.1018
   10MOL   C260 3158   5.336   6.243   1.254 -0.2781 -0.0341  0.0939
   10MOL   C261 3159   5.259   6.250   1.134 -0.4270  0.0308 -0.7610
   10MOL  Cl262 3160   5.268   6.127   1.013 -0.5633  0.4501 -0.2748
   10MOL   C263 3161   5.153   6.347   1.122  0.5538  0.2088  0.3469
   10MOL   C264 3162   5.126   6.442   1.228  0.0735  0.5837  0.2300
   10MOL   C265 3163   5.212   6.433   1.339  0.6010  0.3318  0.2091
   10MOL   C266 3164   5.347   6.198   1.554 -0.1987 -0.3744 -0.0168
   10MOL   H267 3165   5.364   6.404   1.550  1.0104  1.3334 -1.3049
   10MOL   H268 3166   5.405   6.162   1.270 -0.0108  0.1911  0.0826
   10MOL   H269 3167   5.093   6.322   1.036  1.5165  0.4142 -0.3914
   10MOL   H270 3168   5.049   6.518   1.230  0.3383  0.8916 -0.7896
   10MOL   H271 3169   5.198   6.508   1.416  1.9048 -0.7245  1.5022
   10MOL   H272 3170   5.363   6.107   1.498 -3.5201 -1.1441  0.1630
   10MOL   H273 3171   5.402   6.201   1.648  0.3216 -1.2602 -0.2947
   10MOL   C274 3172   5.202   6.192   1.598 -0.8678  0.0849  0.6305
   10MOL   C275 3173   5.169   6.047   1.645  0.0869 -0.3568  0.1812
   10MOL   C276 3174   5.250   5.992   1.757 -0.5369  0.7301  0.7282
   10MOL   C277 3175   5.211   5.863   1.795 -0.5487  0.4797  0.1659
   10MOL  Cl278 3176   5.291   5.785   1.919 -0.5097 -0.1671 -0.3914
   10MOL   C279 3177   5.102   5.796   1.739 -0.4986 -0.2017 -0.0017
   10MOL   C280 3178   5.031   5.847   1.624 -0.5871  0.6501  0.2607
   10MOL   C281 3179   5.072   5.972   1.574 -0.3662  0.0129  0.4305
   10MOL   C282 3180   5.160   6.296   1.708  0.4594 -0.3886  0.5045
   10MOL   H283 3181   5.138   6.195   1.510  0.5445  3.5472 -0.3859
   10MOL   H284 3182   5.329   6.051   1.800 -0.1020  1.1877 -0.6666
   10MOL   H285 3183   5.058   5.712   1.790  0.5113  0.2935  1.7221
   10MOL   H286 3184   4.941   5.798   1.591 -0.0690 -0.1274 -0.0168
   10MOL   H287 3185   5.014   6.018   1.495 -0.0275  1.3708  0.9689
   10MOL   H288 3186   5.156   6.249   1.806  0.5420  0.6514  1.0146
   10MOL   H289 3187   5.242   6.367   1.719  0.2913 -0.1332  0.1119
   10MOL   C290 3188   5.029   6.364   1.675 -0.3184  0.0702 -0.5276
   10MOL   C291 3189   4.907   6.281   1.649  0.0799  1.0264 -0.5961
   10MOL   C292 3190   4.826   6.305   1.538  0.5980  0.1135 -0.2383
   10MOL   C293 3191   4.704   6.241   1.514 -0.1870  0.1342  0.2952
   10MOL  Cl294 3192   4.610   6.280   1.384 -0.1330 -0.0091 -0.1025
   10MOL   C295 3193   4.672   6.134   1.595 -0.5770 -0.2712 -0.0491
   10MOL   C296 3194   4.747   6.110   1.715  0.1223 -0.8639  0.4785
   10MOL   C297 3195   4.870   6.180   1.737 -0.3622 -0.3599  0.1266
   10MOL   C298 3196   4.989   6.457   1.789 -0.4351  0.1819  0.8653
   10MOL   H299 3197   5.046   6.424   1.586  0.7722 -0.8836 -0.9829
   10MOL   H300 3198   4.840   6.393   1.476  0.2805  0.5540  0.3112
   10MOL   H301 3199   4.586   6.070   1.579 -0.3760 -0.5173 -0.1539
   10MOL   H302 3200   4.711   6.038   1.787  0.9918  1.6187  3.5159
   10MOL   H303 3201   4.935   6.160   1.821  2.1434  0.3223 -1.5930
   10MOL   H304 3202   4.884   6.483   1.784 -0.2308  1.7232  3.2768
   10MOL   H305 3203   4.994   6.402   1.883 -3.9484 -0.5154  0.6699
   10MOL   C306 3204   5.075   6.594   1.793 -0.4709 -0.1014 -0.3067
   10MOL   C307 3205   5.077   6.670   1.654 -1.0371 -0.5864  0.5178
   10MOL   C308 3206   4.955   6.704   1.593 -0.0296 -0.0625 -0.2810
   10MOL   C309 3207   4.945   6.758   1.459 -0.6978 -0.1645  0.5569
   10MOL  Cl310 3208   4.797   6.771   1.383 -0.0051 -0.1702  0.2478
   10MOL   C311 3209   5.067   6.784   1.396 -0.1695  0.2011  1.0324
   10MOL   C312 3210   5.190   6.765   1.462 -0.5378  0.3168  0.2950
   10MOL   C313 3211   5.197   6.711   1.588 -0.7859 -0.6187 -0.0579
   10MOL   C314 3212   5.029   6.670   1.913  0.7056 -0.8937 -0.0078
   10MOL   H315 3213   5.182   6.573   1.791 -0.7776 -1.8776  0.8720
   10MOL   H316 3214   4.863   6.679   1.643 -0.8282  0.0302 -1.6809
   10MOL   H317 3215   5.057   6.826   1.297 -2.0463  0.5626  1.3586
   10MOL   H318 3216   5.282   6.783   1.409 -0.0421 -0.6146  0.8275
   10MOL   H319 3217   5.294   6.683   1.627 -1.4887  0.8948  2.9630
   10MOL   H320 3218   5.014   6.609   2.002 -1.6057 -0.8397 -0.3258
   10MOL   H321 3219   5.089   6.758   1.935 -2.1267  0.8509  1.0539
   10MOL   H322 3220   4.928   6.710   1.912  0.7663 -0.7071  0.8675
   11MOL     C1 3221   3.348   4.567   3.343 -0.7355  0.1619  0.4362
   11MOL     C2 3222   3.324   4.552   3.487  0.2071  0.2755 -0.0053
   11MOL     C3 3223   3.410   4.612   3.578  0.2264 -0.0302  0.5562
   11MOL     C4 3224   3.388   4.598   3.715  0.2911 -0.5123  0.3334
   11MOL    Cl5 3225   3.489   4.688   3.821  0.0350 -0.6255 -0.0166
   11MOL     C6 3226   3.277   4.523   3.766 -0.0257 -0.0197 -0.4607
   11MOL     C7 3227   3.190   4.457   3.673 -0.5144 -0.3834 -0.8894
   11MOL     C8 3228   3.215   4.475   3.533 -1.3910 -0.0770  0.3768
   11MOL     C9 3229   3.239   4.511   3.244 -0.6747  0.2143  0.1357
   11MOL    H10 3230   3.445   4.523   3.322 -1.7981 -1.4482 -1.2944
   11MOL    H11 3231   3.488   4.673   3.535  2.8131 -2.6464  1.4083
   11MOL    H12 3232   3.252   4.510   3.870 -2.0948 -0.0999 -0.9515
   11MOL    H13 3233   3.109   4.396   3.709 -0.8841  1.0122  0.7364
   11MOL    H14 3234   3.153   4.423   3.462  2.9540 -2.4340 -1.9152
   11MOL    H15 3235   3.212   4.410   3.275  2.9599 -0.5918  0.9404
   11MOL    H16 3236   3.150   4.573   3.249  0.2942  1.7644 -1.3157
   11MOL    H17 3237   3.366   4.671   3.313  1.4780  0.0995  1.4730
   11MOL    C18 3238   3.297   4.515   3.097  0.1318 -0.1853 -0.0536
   11MOL    C19 3239   3.430   4.453   3.080  0.3396 -0.3083 -1.0355
   11MOL    C20 3240   3.446   4.318   3.110 -0.9762  0.0892 -0.7508
   11MOL    C21 3241   3.576   4.259   3.100  0.3217 -0.5365  0.1037
   11MOL   Cl22 3242   3.593   4.096   3.145  0.1816 -0.4263 -0.0639
   11MOL    C23 3243   3.690   4.331   3.063 -0.2386  0.3249  0.3962
   11MOL    C24 3244   3.669   4.468   3.037  0.3419 -0.8640  0.0768
   11MOL    C25 3245   3.541   4.530   3.044 -0.9592  0.8992  0.6413
   11MOL    C26 3246   3.200   4.461   2.992 -0.3927 -0.3741 -0.4901
   11MOL    H27 3247   3.309   4.622   3.080  2.9667 -0.4588 -0.0669
   11MOL    H28 3248   3.368   4.250   3.140 -0.8117  0.9505  1.7330
   11MOL    H29 3249   3.788   4.286   3.052  0.4135  2.0271 -0.9895
   11MOL    H30 3250   3.759   4.518   3.003  0.4685 -2.8710 -2.7542
   11MOL    H31 3251   3.532   4.637   3.028  2.1405  0.7627 -2.9095
   11MOL    H32 3252   3.232   4.482   2.889 -1.4791  1.1737 -0.5397
   11MOL    H33 3253   3.198   4.354   3.011  0.6806 -0.2393  0.4440
   11MOL    C34 3254   3.060   4.516   2.996  0.1231  0.2985 -0.1656
   11MOL    C35 3255   3.049   4.667   2.985  0.2211 -0.5230  0.0479
   11MOL    C36 3256   3.093   4.729   2.868  0.2434  0.2600  0.2375
   11MOL    C37 3257   3.077   4.863   2.839 -0.1037 -0.1162 -0.2402
   11MOL   Cl38 3258   3.127   4.941   2.692  0.1542 -0.0588  0.2628
   11MOL    C39 3259   3.035   4.946   2.943 -0.3457  0.0639  1.0361
   11MOL    C40 3260   2.979   4.893   3.064 -0.6400 -0.0022 -0.4363
   11MOL    C41 3261   2.985   4.751   3.080  0.1144  0.0603 -0.2604
   11MOL    C42 3262   2.982   4.441   2.885 -0.6384  0.1773 -0.1170
   11MOL    H43 3263   3.015   4.487   3.091 -1.3464 -1.7112 -1.4358
   11MOL    H44 3264   3.144   4.665   2.798 -0.8877 -2.4533  1.8308
   11MOL    H45 3265   3.038   5.052   2.923  2.2559  0.0948  1.3977
   11MOL    H46 3266   2.947   4.957   3.144  1.7962  1.2898 -0.4783
   11MOL    H47 3267   2.931   4.708   3.163  1.2736  0.0675  0.5142
   11MOL    H48 3268   2.900   4.508   2.861 -1.8718 -2.0124 -2.2364
   11MOL    H49 3269   3.023   4.427   2.785 -1.5700  1.0009 -0.6220
   11MOL    C50 3270   2.919   4.302   2.937 -0.3352 -0.2008 -0.1771
   11MOL    C51 3271   2.807   4.265   2.841 -0.1379  0.1026 -0.2428
   11MOL    C52 3272   2.678   4.321   2.874 -0.4055 -0.3549  0.5408
   11MOL    C53 3273   2.576   4.315   2.777  0.3079 -0.5042 -1.1135
   11MOL   Cl54 3274   2.416   4.366   2.820  0.4946  0.2374  0.1410
   11MOL    C55 3275   2.597   4.252   2.658 -0.0406 -0.6664 -0.0316
   11MOL    C56 3276   2.719   4.195   2.631  0.7423 -0.4683  0.2458
   11MOL    C57 3277   2.825   4.205   2.717  0.0972  0.1156 -0.3675
   11MOL    C58 3278   3.026   4.188   2.945 -0.4418 -0.2165 -0.4359
   11MOL    H59 3279   2.880   4.315   3.038  2.3001  1.8008  0.6252
   11MOL    H60 3280   2.664   4.376   2.966 -1.3013 -1.0592  0.8384
   11MOL    H61 3281   2.516   4.252   2.587  0.0286  1.9122 -0.1684
   11MOL    H62 3282   2.727   4.160   2.529 -0.4841  1.8869 -0.7158
   11MOL    H63 3283   2.926   4.185   2.684 -0.1025 -0.7386 -0.4705
   11MOL    H64 3284   3.089   4.212   2.860 -0.6218  1.4619 -0.1141
   11MOL    H65 3285   3.068   4.198   3.045  0.6872 -3.3003 -0.5407
   11MOL    C66 3286   2.987   4.039   2.949 -1.1394  0.0097  0.2004
   11MOL    C67 3287   3.113   3.959   2.928 -0.5052  0.3935 -0.3074
   11MOL    C68 3288   3.134   3.891   2.810  0.1018 -0.4719  0.5237
   11MOL    C69 3289   3.258   3.825   2.789 -0.1065 -0.0168 -0.5831
   11MOL   Cl70 3290   3.284   3.720   2.650  0.3279 -0.1538  0.1214
   11MOL    C71 3291   3.362   3.828   2.885  0.0367  0.1250  0.3572
   11MOL    C72 3292   3.341   3.897   3.004  0.6057 -0.1768 -0.6807
   11MOL    C73 3293   3.217   3.959   3.026  0.3000  0.9756 -0.7282
   11MOL    C74 3294   2.906   3.990   3.074 -0.3222 -0.5774  0.0016
   11MOL    H75 3295   2.928   4.014   2.861 -2.3612 -0.6852  1.2037
   11MOL    H76 3296   3.059   3.889   2.732 -0.2852 -3.2811  0.9298
   11MOL    H77 3297   3.457   3.780   2.867  0.8528  2.4369 -1.6197
   11MOL    H78 3298   3.420   3.908   3.077  1.5220 -0.4366 -1.6279
   11MOL    H79 3299   3.204   4.004   3.123  0.4053  2.3315 -1.3231
   11MOL    H80 3300   2.974   4.009   3.156  1.2051  0.1948 -1.4149
   11MOL    H81 3301   2.830   4.067   3.092 -1.6003 -1.7208 -0.3962
   11MOL    C82 3302   2.836   3.857   3.068 -0.1618  0.1528 -0.2518
   11MOL    C83 3303   2.915   3.735   3.100 -0.6974  0.2412 -0.9486
   11MOL    C84 3304   3.023   3.736   3.190  0.0025  0.4953 -0.3663
   11MOL    C85 3305   3.097   3.620   3.211 -0.7286  0.1218  0.0215
   11MOL   Cl86 3306   3.222   3.630   3.324  0.4714 -0.0318  0.0959
   11MOL    C87 3307   3.070   3.505   3.135  0.6253  0.2845  0.4147
   11MOL    C88 3308   2.956   3.502   3.047  0.1518 -0.5538 -0.4230
   11MOL    C89 3309   2.880   3.619   3.032 -0.1963 -0.2155 -0.3702
   11MOL    C90 3310   2.715   3.861   3.165  1.2566  0.0747 -0.1192
   11MOL    H91 3311   2.797   3.847   2.967 -2.5410 -0.5087  0.7137
   11MOL    H92 3312   3.035   3.821   3.256  1.7220 -0.5595  0.7186
   11MOL    H93 3313   3.133   3.420   3.162 -2.1490 -1.5517  1.3303
   11MOL    H94 3314   2.925   3.411   2.997 -1.3228  0.4370 -1.3494
   11MOL    H95 3315   2.800   3.614   2.960 -1.3918 -0.3419  0.9308
   11MOL    H96 3316   2.685   3.757   3.182  0.2072  0.5187  0.7897
   11MOL    H97 3317   2.748   3.887   3.265 -2.1934 -2.2282  1.7190
   11MOL    C98 3318   2.592   3.934   3.119  0.3518  0.3952  0.1650
   11MOL    C99 3319   2.532   3.879   2.986  0.1021  0.3699 -0.0512
   11MOL   C100 3320   2.473   3.753   2.976 -0.3667 -0.2146 -0.4235
   11MOL   C101 3321   2.450   3.705   2.847 -0.2675 -0.0857 -1.0419
   11MOL  Cl102 3322   2.401   3.546   2.829 -0.1143  0.0793  0.1791
   11MOL   C103 3323   2.459   3.793   2.736 -0.4485  0.2997  0.3454
   11MOL   C104 3324   2.495   3.924   2.751  0.4781 -0.2391  0.3285
   11MOL   C105 3325   2.537   3.966   2.876 -0.3034  0.4972 -0.7225
   11MOL   C106 3326   2.486   3.932   3.234 -0.7513 -0.4407  0.9109
   11MOL   H107 3327   2.616   4.040   3.111 -0.7999  0.7197  0.9150
   11MOL   H108 3328   2.463   3.688   3.061  1.5748 -1.1772 -0.8965
   11MOL   H109 3329   2.446   3.754   2.636  4.2265  0.3112 -0.3731
   11MOL   H110 3330   2.501   3.990   2.665  2.1442 -1.0828 -0.2319
   11MOL   H111 3331   2.570   4.068   2.891  0.6436  0.2983 -1.3530
   11MOL   H112 3332   2.456   3.828   3.244  1.2511 -1.0893  0.3527
   11MOL   H113 3333   2.551   3.947   3.320  2.7666 -0.3684 -1.6468
   11MOL   C114 3334   2.370   4.044   3.223 -1.2075 -0.0245 -0.5931
   11MOL   C115 3335   2.268   3.993   3.126 -0.8789  0.0561  0.1537
   11MOL   C116 3336   2.257   4.045   2.997 -0.4709  0.6673  0.5953
   11MOL   C117 3337   2.167   4.003   2.898  0.0258  0.8480 -0.3883
   11MOL  Cl118 3338   2.181   4.057   2.740 -0.3589  0.2843 -0.0677
   11MOL   C119 3339   2.081   3.890   2.934 -0.7324 -0.0074 -0.1785
   11MOL   C120 3340   2.095   3.835   3.065  0.4656 -0.6143  0.1013
   11MOL   C121 3341   2.186   3.884   3.160  0.1434  0.9493  0.1516
   11MOL   C122 3342   2.304   4.090   3.351  0.1556  1.0325 -0.3528
   11MOL   H123 3343   2.408   4.134   3.176 -1.8229  0.3280 -0.4154
   11MOL   H124 3344   2.330   4.119   2.967  0.3439 -0.6602 -0.7803
   11MOL   H125 3345   2.008   3.844   2.868  0.7109 -0.5193 -1.4338
   11MOL   H126 3346   2.033   3.751   3.094 -2.4224  0.6652 -2.0028
   11MOL   H127 3347   2.212   3.836   3.254 -1.2066  1.9555  1.0664
   11MOL   H128 3348   2.238   4.169   3.318  1.6564  2.3940 -0.1815
   11MOL   H129 3349   2.247   4.012   3.400  0.2594  0.6775 -0.7931
   11MOL   C130 3350   2.393   4.149   3.455  0.0220 -0.2222 -0.1428
   11MOL   C131 3351   2.497   4.242   3.397  0.2855 -0.4998  0.7417
   11MOL   C132 3352   2.636   4.208   3.399 -0.0801 -0.5015 -0.2204
   11MOL   C133 3353   2.725   4.291   3.333  0.1396 -0.3427  0.0980
   11MOL  Cl134 3354   2.893   4.260   3.329  0.1289  0.0749 -0.5724
   11MOL   C135 3355   2.676   4.411   3.273 -0.1377  0.3343  0.0792
   11MOL   C136 3356   2.541   4.443   3.278  0.5250  0.5451 -0.4917
   11MOL   C137 3357   2.449   4.359   3.343 -0.0203 -0.6065  0.2660
   11MOL   C138 3358   2.321   4.219   3.572  0.0865 -0.4805 -0.0635
   11MOL   H139 3359   2.460   4.071   3.490  0.8797  0.8134  0.5331
   11MOL   H140 3360   2.667   4.118   3.449 -2.6224 -0.6778  1.0983
   11MOL   H141 3361   2.749   4.466   3.216  0.5892 -2.1986 -1.5092
   11MOL   H142 3362   2.510   4.528   3.218  0.1864 -1.2006 -2.8648
   11MOL   H143 3363   2.346   4.390   3.344  0.3130  0.5273  1.4292
   11MOL   H144 3364   2.403   4.268   3.625 -0.0441  1.5650 -1.7025
   11MOL   H145 3365   2.258   4.297   3.531 -0.3700 -0.6440  0.3285
   11MOL   C146 3366   2.240   4.129   3.660  0.0719 -0.1158 -0.5691
   11MOL   C147 3367   2.322   4.019   3.721 -0.6075  0.0895 -0.1692
   11MOL   C148 3368   2.288   3.885   3.682 -0.8757  0.3002  0.0236
   11MOL   C149 3369   2.360   3.771   3.729 -0.3078  0.2407 -0.3080
   11MOL  Cl150 3370   2.308   3.620   3.673 -0.1196 -0.4758 -0.2049
   11MOL   C151 3371   2.467   3.793   3.821  0.4510  0.1492 -0.5764
   11MOL   C152 3372   2.501   3.928   3.856  0.6769 -0.1891 -0.3497
   11MOL   C153 3373   2.429   4.040   3.806 -0.1750  0.3780 -0.1502
   11MOL   C154 3374   2.161   4.216   3.763  0.5778  0.1097  0.1097
   11MOL   H155 3375   2.166   4.089   3.590 -0.6305  2.3734 -1.2701
   11MOL   H156 3376   2.211   3.880   3.607 -1.0141 -1.2864  0.2551
   11MOL   H157 3377   2.514   3.704   3.858  1.1794 -0.2360 -2.3689
   11MOL   H158 3378   2.563   3.943   3.943  1.7609 -0.1852 -1.1087
   11MOL   H159 3379   2.461   4.140   3.832  0.5114 -0.0385  0.6194
   11MOL   H160 3380   2.232   4.266   3.828  1.2150  0.4004 -0.8072
   11MOL   H161 3381   2.103   4.292   3.711 -0.0103  0.6982  1.6236
   11MOL   C162 3382   2.053   4.145   3.851  0.0986 -0.8544 -0.3820
   11MOL   C163 3383   2.016   4.236   3.971 -0.1753 -0.1711 -0.6209
   11MOL   C164 3384   1.943   4.357   3.944 -0.3470  0.1720 -0.2258
   11MOL   C165 3385   1.885   4.428   4.053  0.2426 -0.0392 -0.3208
   11MOL  Cl166 3386   1.764   4.547   4.027  0.0932 -0.1229  0.1841
   11MOL   C167 3387   1.916   4.387   4.188  0.1658  0.2244 -0.3454
   11MOL   C168 3388   1.996   4.266   4.208  0.5692  0.2864  1.0203
   11MOL   C169 3389   2.041   4.188   4.102 -0.3845  0.6054  0.3006
   11MOL   C170 3390   1.918   4.105   3.774 -0.9190  0.5483  0.3563
   11MOL   H171 3391   2.107   4.056   3.885 -0.2259 -0.7039  0.5666
   11MOL   H172 3392   1.924   4.390   3.843  0.0055  1.2480  0.0605
   11MOL   H173 3393   1.874   4.445   4.269 -1.8574 -0.2094 -1.0628
   11MOL   H174 3394   2.006   4.233   4.310 -0.2417 -0.4548  0.8697
   11MOL   H175 3395   2.097   4.099   4.125 -2.8499 -0.7665  1.0743
   11MOL   H176 3396   1.869   4.193   3.733 -3.1876  1.0529  4.0245
   11MOL   H177 3397   1.945   4.046   3.686 -1.6700  0.3081  0.2913
   11MOL   C178 3398   1.819   4.008   3.847  0.0910 -0.7716 -0.5337
   11MOL   C179 3399   1.720   4.082   3.931 -0.3162 -0.2577 -0.1386
   11MOL   C180 3400   1.714   4.050   4.070 -0.4098  0.5182 -0.1625
   11MOL   C181 3401   1.634   4.137   4.150  0.7858 -0.2611  0.1383
   11MOL  Cl182 3402   1.625   4.113   4.323 -0.0778  0.0627 -0.0854
   11MOL   C183 3403   1.554   4.241   4.094 -0.0346  0.3436 -0.6783
   11MOL   C184 3404   1.558   4.268   3.955 -0.5680  0.2142 -0.3201
   11MOL   C185 3405   1.641   4.184   3.875 -0.0356 -0.7341  0.2017
   11MOL   C186 3406   1.745   3.922   3.745 -0.6303  0.3959 -0.3460
   11MOL   H187 3407   1.875   3.938   3.909  1.2800  0.5349 -0.0971
   11MOL   H188 3408   1.775   3.971   4.110 -0.5150 -0.1044 -1.2133
   11MOL   H189 3409   1.496   4.305   4.158 -0.0128  1.8381 -2.1381
   11MOL   H190 3410   1.498   4.348   3.914 -1.2164 -0.0830  0.0286
   11MOL   H191 3411   1.630   4.212   3.772  0.9223  3.1177  1.0570
   11MOL   H192 3412   1.685   3.978   3.673  0.6932  1.3724 -0.7096
   11MOL   H193 3413   1.821   3.877   3.681 -1.3784 -3.1680  1.1523
   11MOL   C194 3414   1.662   3.804   3.798  0.6276 -0.5584 -0.0617
   11MOL   C195 3415   1.731   3.715   3.902  0.4806  0.0892  0.4015
   11MOL   C196 3416   1.687   3.720   4.039 -0.0826 -0.8479 -0.2689
   11MOL   C197 3417   1.786   3.688   4.138  0.1481 -0.6143 -0.0974
   11MOL  Cl198 3418   1.751   3.728   4.305 -0.1783  0.5821  0.1475
   11MOL   C199 3419   1.905   3.613   4.111 -0.2025  0.3051 -0.2802
   11MOL   C200 3420   1.938   3.590   3.976  0.2324  0.1726  0.5391
   11MOL   C201 3421   1.859   3.646   3.871  0.1804 -0.6120 -0.0284
   11MOL   C202 3422   1.506   3.830   3.818  0.4546 -0.3729 -0.1345
   11MOL   H203 3423   1.653   3.738   3.711 -0.4292 -0.8677  0.2664
   11MOL   H204 3424   1.600   3.777   4.068  0.6803  0.3749 -0.3184
   11MOL   H205 3425   1.988   3.587   4.175 -0.1881 -1.4885 -1.0100
   11MOL   H206 3426   2.024   3.529   3.955 -0.1414 -0.1341 -0.1260
   11MOL   H207 3427   1.890   3.628   3.770 -0.0564  1.4681 -0.4957
   11MOL   H208 3428   1.508   3.897   3.904 -0.0714  1.4966 -1.5430
   11MOL   H209 3429   1.471   3.890   3.735 -0.8762 -2.3567 -1.0315
   11MOL   C210 3430   1.430   3.702   3.845 -0.0466  0.2281 -0.3717
   11MOL   C211 3431   1.311   3.730   3.931 -0.3787  0.4708 -0.5445
   11MOL   C212 3432   1.203   3.800   3.875  0.4578  0.8936  0.2568
   11MOL   C213 3433   1.085   3.819   3.952 -0.3505 -0.9999  0.5654
   11MOL  Cl214 3434   0.959   3.917   3.899 -0.3655  0.1305 -0.0704
   11MOL   C215 3435   1.078   3.767   4.082  0.7209 -0.7906  0.1620
   11MOL   C216 3436   1.181   3.688   4.130  0.6610  0.6321  0.9710
   11MOL   C217 3437   1.299   3.674   4.060  0.1480  0.9674  0.2561
   11MOL   C218 3438   1.398   3.625   3.714 -0.1362 -0.1288 -0.6869
   11MOL   H219 3439   1.485   3.629   3.905  0.8067  2.0727  1.1312
   11MOL   H220 3440   1.199   3.840   3.775 -2.2039  1.5954  0.6070
   11MOL   H221 3441   0.988   3.782   4.141  2.2699 -0.6768  2.5428
   11MOL   H222 3442   1.179   3.633   4.223 -0.7559  0.6031  0.9215
   11MOL   H223 3443   1.373   3.610   4.105  1.6348  0.0798 -3.2896
   11MOL   H224 3444   1.331   3.694   3.663  0.1279 -1.4415 -2.8854
   11MOL   H225 3445   1.484   3.627   3.647  0.2775  2.3287 -0.1361
   11MOL   C226 3446   1.337   3.485   3.736 -0.6245  0.5086 -0.1992
   11MOL   C227 3447   1.182   3.497   3.718  0.9525  0.3270 -0.2365
   11MOL   C228 3448   1.098   3.463   3.827  0.4329  0.5130 -0.4694
   11MOL   C229 3449   0.959   3.464   3.813 -0.3665 -0.0580 -0.5339
   11MOL  Cl230 3450   0.843   3.441   3.933 -0.0023 -0.1118  0.5291
   11MOL   C231 3451   0.904   3.494   3.684 -0.0341 -0.2692  0.7028
   11MOL   C232 3452   0.987   3.530   3.576  0.3348 -0.1393 -0.5192
   11MOL   C233 3453   1.126   3.534   3.592  0.5083  0.1706 -0.9488
   11MOL   C234 3454   1.404   3.367   3.662  0.3465 -0.8207  0.1329
   11MOL   H235 3455   1.357   3.464   3.842 -0.3772 -1.0812 -0.5482
   11MOL   H236 3456   1.136   3.429   3.922 -1.3822 -0.1080  0.0553
   11MOL   H237 3457   0.796   3.500   3.687  0.0566  1.7960  0.4457
   11MOL   H238 3458   0.951   3.562   3.479 -1.6215 -0.2397  0.1467
   11MOL   H239 3459   1.198   3.565   3.518  0.4480  0.4052 -0.9078
   11MOL   H240 3460   1.341   3.278   3.657 -0.3130 -0.2750 -1.4849
   11MOL   H241 3461   1.424   3.401   3.561 -2.0041 -0.8482 -0.3734
   11MOL   C242 3462   1.532   3.317   3.724  0.1704  0.2044  0.1543
   11MOL   C243 3463   1.513   3.290   3.869  0.0599  0.1930 -0.2922
   11MOL   C244 3464   1.404   3.216   3.914  0.5779  0.0606  0.1998
   11MOL   C245 3465   1.395   3.192   4.056 -0.5476  0.1232  0.4890
   11MOL  Cl246 3466   1.255   3.103   4.112 -0.0327 -0.5055  0.1511
   11MOL   C247 3467   1.485   3.254   4.144 -0.4198 -0.2907 -0.1504
   11MOL   C248 3468   1.586   3.340   4.098 -0.5890  0.6625  0.5132
   11MOL   C249 3469   1.601   3.351   3.960  0.4805 -0.5872 -0.5441
   11MOL   C250 3470   1.608   3.200   3.651 -0.0521 -0.1593 -0.3943
   11MOL   H251 3471   1.593   3.406   3.706 -0.1969 -0.0150 -2.3253
   11MOL   H252 3472   1.342   3.161   3.845  0.0974 -0.6490  1.1911
   11MOL   H253 3473   1.471   3.243   4.251 -0.8194 -0.3759 -0.2117
   11MOL   H254 3474   1.660   3.380   4.165  0.1131  0.6293 -0.2438
   11MOL   H255 3475   1.683   3.410   3.924 -0.2550 -0.7884 -2.6108
   11MOL   H256 3476   1.695   3.164   3.706  0.3786  1.5118  0.0712
   11MOL   H257 3477   1.544   3.114   3.636 -0.1313 -0.1472 -0.1302
   11MOL   C258 3478   1.645   3.237   3.505 -0.1129 -0.5309 -0.2042
   11MOL   C259 3479   1.724   3.367   3.502  0.1471  0.5536 -0.0331
   11MOL   C260 3480   1.670   3.482   3.442 -0.3292  0.1739  0.4480
   11MOL   C261 3481   1.752   3.599   3.430 -0.2410 -0.4474  0.2115
   11MOL  Cl262 3482   1.697   3.750   3.374  0.1789 -0.2237 -0.3474
   11MOL   C263 3483   1.891   3.592   3.454  0.8333 -0.2582 -0.9127
   11MOL   C264 3484   1.941   3.480   3.528  0.8579  0.2904 -0.2299
   11MOL   C265 3485   1.860   3.366   3.545 -0.5987 -0.6297 -0.2560
   11MOL   C266 3486   1.726   3.117   3.443 -0.2816 -0.6438  0.2171
   11MOL   H267 3487   1.553   3.261   3.453  0.6714  3.8557  0.2902
   11MOL   H268 3488   1.567   3.497   3.415 -0.6023 -0.3410  1.2122
   11MOL   H269 3489   1.961   3.671   3.432 -0.8426  1.6002  0.1130
   11MOL   H270 3490   2.048   3.470   3.543  0.7347 -1.4664 -0.3730
   11MOL   H271 3491   1.903   3.278   3.589  1.3278 -0.3190 -1.4817
   11MOL   H272 3492   1.835   3.123   3.445 -0.2544  0.3684 -2.1703
   11MOL   H273 3493   1.696   3.023   3.489 -1.7169  0.7430  2.1979
   11MOL   C274 3494   1.697   3.094   3.296 -0.8140  0.1876  0.7169
   11MOL   C275 3495   1.693   3.223   3.216  0.7948  0.1863  0.6166
   11MOL   C276 3496   1.813   3.287   3.176 -0.6210  0.1826  0.1082
   11MOL   C277 3497   1.808   3.414   3.106 -0.0842  0.0512  0.5523
   11MOL  Cl278 3498   1.949   3.502   3.066 -0.1402  0.1444  0.1755
   11MOL   C279 3499   1.687   3.466   3.065  0.1578 -0.3573 -0.3887
   11MOL   C280 3500   1.568   3.401   3.097 -0.6414 -0.0925 -0.0100
   11MOL   C281 3501   1.567   3.280   3.167  0.2885 -0.4280 -0.5064
   11MOL   C282 3502   1.795   2.991   3.234 -0.1294  0.1990  0.4333
   11MOL   H283 3503   1.595   3.057   3.286 -1.6336  2.3653  0.6897
   11MOL   H284 3504   1.912   3.258   3.207 -0.5338 -0.0258 -0.3571
   11MOL   H285 3505   1.680   3.555   3.004  1.9355 -0.2875 -0.5321
   11MOL   H286 3506   1.482   3.451   3.056  1.2252  2.0423 -1.4732
   11MOL   H287 3507   1.474   3.232   3.194  0.2483  0.3589  0.7750
   11MOL   H288 3508   1.895   3.031   3.246  0.1367 -0.3644  0.1058
   11MOL   H289 3509   1.788   2.906   3.302  1.0358  0.6622  1.1448
   11MOL   C290 3510   1.770   2.946   3.091 -0.4956 -0.4550  0.2297
   11MOL   C291 3511   1.907   2.943   3.013 -0.1202 -0.6636 -0.5409
   11MOL   C292 3512   1.941   3.044   2.918 -0.5011 -0.2089 -0.1638
   11MOL   C293 3513   2.056   3.034   2.834 -0.1414 -0.0476  0.4397
   11MOL  Cl294 3514   2.094   3.160   2.731  0.1419 -0.0821  0.0178
   11MOL   C295 3515   2.145   2.928   2.858 -0.0835 -0.3942  0.6930
   11MOL   C296 3516   2.113   2.828   2.951 -0.0664 -0.1980  0.0397
   11MOL   C297 3517   2.001   2.840   3.035 -0.0229 -0.3756 -0.5792
   11MOL   C298 3518   1.701   2.807   3.079  0.0508 -0.4438 -0.7463
   11MOL   H299 3519   1.715   3.023   3.036  2.0916  2.0480  1.0504
   11MOL   H300 3520   1.874   3.124   2.890  2.5187  2.2684 -0.5232
   11MOL   H301 3521   2.243   2.926   2.813  0.1551  0.4057  1.1766
   11MOL   H302 3522   2.175   2.741   2.968  1.7763  1.5348  2.5777
   11MOL   H303 3523   1.982   2.762   3.107  0.3929  0.2800  0.2449
   11MOL   H304 3524   1.711   2.783   2.973 -1.0906  0.1560 -0.9981
   11MOL   H305 3525   1.758   2.729   3.130 -1.1209  1.2315  3.3580
   11MOL   C306 3526   1.551   2.797   3.125  0.1711 -0.3528 -0.3739
   11MOL   C307 3527   1.458   2.873   3.033 -0.8982 -0.1056 -0.7506
   11MOL   C308 3528   1.443   2.826   2.903  0.0788 -0.8239  0.1557
   11MOL   C309 3529   1.360   2.891   2.809  0.2986 -0.1725  0.5505
   11MOL  Cl310 3530   1.342   2.839   2.643 -0.0617 -0.0418 -0.0640
   11MOL   C311 3531   1.280   2.996   2.855  0.6524 -0.0739 -0.3588
   11MOL   C312 3532   1.300   3.049   2.984 -0.0895 -0.6064  0.3944
   11MOL   C313 3533   1.386   2.987   3.080  0.1276  0.6048 -0.2910
   11MOL   C314 3534   1.500   2.653   3.133  0.2221 -0.1701  0.9100
   11MOL   H315 3535   1.548   2.840   3.225 -0.5027 -0.3770 -0.3808
   11MOL   H316 3536   1.504   2.743   2.871  0.2366 -0.5937 -0.1495
   11MOL   H317 3537   1.224   3.049   2.780 -1.7554  0.8473  1.9864
   11MOL   H318 3538   1.253   3.140   3.020 -0.2222 -0.4637 -0.1434
   11MOL   H319 3539   1.394   3.026   3.180  0.1361  0.0410 -0.0683
   11MOL   H320 3540   1.508   2.621   3.029 -0.1812  1.1567  0.4625
   11MOL   H321 3541   1.570   2.591   3.188 -0.1253 -1.6052 -0.2146
   11MOL   H322 3542   1.399   2.654   3.174 -0.5140  2.8522 -0.8326
   12MOL     C1 3543   5.145   1.375   6.848 -0.7225  0.5691 -0.1914
   12MOL     C2 3544   5.013   1.304   6.889 -0.3191  0.0650  0.1987
   12MOL     C3 3545   4.903   1.380   6.933 -0.2548  0.3750 -0.2185
   12MOL     C4 3546   4.791   1.311   6.979  0.0031 -0.9513 -0.4557
   12MOL    Cl5 3547   4.664   1.404   7.052  0.2197 -0.1423  0.2217
   12MOL     C6 3548   4.778   1.169   6.976 -0.2023  0.1870 -0.3612
   12MOL     C7 3549   4.887   1.100   6.922 -0.4182  0.1561 -0.1696
   12MOL     C8 3550   5.001   1.167   6.875  0.1141  0.1771 -0.4537
   12MOL     C9 3551   5.237   1.383   6.976 -0.2268 -0.1616  0.2524
   12MOL    H10 3552   5.123   1.475   6.809  0.6606  0.6025 -0.9073
   12MOL    H11 3553   4.910   1.488   6.943  0.5689  0.3939 -0.9665
   12MOL    H12 3554   4.686   1.126   7.015 -0.2796 -0.0030 -0.7584
   12MOL    H13 3555   4.889   0.992   6.929 -2.1600  0.1914  1.4205
   12MOL    H14 3556   5.085   1.114   6.834 -1.9580 -2.6267 -1.1926
   12MOL    H15 3557   5.175   1.434   7.049  0.4696  0.7486  0.2130
   12MOL    H16 3558   5.248   1.283   7.017 -0.8147  0.2029  1.3140
   12MOL    H17 3559   5.191   1.325   6.763  0.6539  2.0505 -0.3405
   12MOL    C18 3560   5.378   1.449   6.966  0.3009 -0.3631  0.3414
   12MOL    C19 3561   5.369   1.580   6.880 -0.5930 -0.4486 -1.0387
   12MOL    C20 3562   5.408   1.589   6.751  0.8221  0.3875  0.5928
   12MOL    C21 3563   5.409   1.709   6.677  0.2860  0.4327 -0.3074
   12MOL   Cl22 3564   5.434   1.710   6.508  0.3732  0.4806 -0.3725
   12MOL    C23 3565   5.366   1.825   6.751  0.5394  0.1520 -0.2021
   12MOL    C24 3566   5.326   1.818   6.886  0.3198 -0.1792 -0.2971
   12MOL    C25 3567   5.320   1.693   6.950 -0.1847 -0.3014  0.0654
   12MOL    C26 3568   5.459   1.465   7.097 -0.1408 -0.0493  0.8738
   12MOL    H27 3569   5.429   1.374   6.905  1.6825 -2.1090  3.4994
   12MOL    H28 3570   5.433   1.498   6.697  0.2556 -0.3930  1.6131
   12MOL    H29 3571   5.339   1.915   6.696  1.1910 -0.2424 -1.1827
   12MOL    H30 3572   5.287   1.904   6.938  1.1490  0.4345 -0.6736
   12MOL    H31 3573   5.279   1.685   7.050 -2.0216 -4.8451 -0.8932
   12MOL    H32 3574   5.552   1.515   7.070 -0.6233  0.9892  1.1465
   12MOL    H33 3575   5.397   1.522   7.166 -0.1404  0.3037  0.5808
   12MOL    C34 3576   5.508   1.329   7.163 -0.2547  0.0732  0.0228
   12MOL    C35 3577   5.570   1.237   7.061 -0.1779 -0.4645  0.2266
   12MOL    C36 3578   5.509   1.118   7.023 -0.2315  0.5302  0.5453
   12MOL    C37 3579   5.565   1.034   6.924 -0.0743 -0.3946  0.2669
   12MOL   Cl38 3580   5.471   0.892   6.884 -0.1511 -0.0049  0.5170
   12MOL    C39 3581   5.686   1.056   6.865 -0.3129  0.3216  0.1678
   12MOL    C40 3582   5.753   1.172   6.903 -0.6647 -0.1410  0.2952
   12MOL    C41 3583   5.695   1.263   6.998  0.2363 -0.1732 -0.5559
   12MOL    C42 3584   5.602   1.362   7.285  0.5054 -0.7432 -0.8550
   12MOL    H43 3585   5.424   1.275   7.208  1.0453 -2.5220 -0.5878
   12MOL    H44 3586   5.413   1.095   7.067  0.6868 -0.8156  1.8900
   12MOL    H45 3587   5.730   0.991   6.791 -2.5868 -0.7221 -0.3250
   12MOL    H46 3588   5.844   1.204   6.856 -1.0735  1.6739  0.7115
   12MOL    H47 3589   5.741   1.359   7.017  0.7104 -0.6194  0.6043
   12MOL    H48 3590   5.638   1.274   7.338  4.3786  1.4161  0.2912
   12MOL    H49 3591   5.695   1.410   7.254  1.0120 -1.1630  0.0040
   12MOL    C50 3592   5.530   1.444   7.393  0.4721 -0.2984  0.7044
   12MOL    C51 3593   5.385   1.401   7.432  0.2897  0.2009  0.3972
   12MOL    C52 3594   5.270   1.486   7.416  0.3340  0.0763 -0.7006
   12MOL    C53 3595   5.144   1.449   7.468  0.1485  0.4860 -0.6091
   12MOL   Cl54 3596   5.000   1.533   7.430 -0.0280 -0.0158  0.2161
   12MOL    C55 3597   5.129   1.321   7.534  0.1122  0.7352 -0.0587
   12MOL    C56 3598   5.243   1.236   7.542 -0.0242  0.0159  0.0203
   12MOL    C57 3599   5.366   1.274   7.490 -0.0426 -0.0297 -0.2066
   12MOL    C58 3600   5.627   1.452   7.514  0.1559  0.5365 -1.0672
   12MOL    H59 3601   5.514   1.546   7.357 -0.3419 -0.9523 -0.8409
   12MOL    H60 3602   5.278   1.581   7.364  0.2710 -0.7756 -2.2799
   12MOL    H61 3603   5.040   1.304   7.592 -0.1786  0.6787 -0.5240
   12MOL    H62 3604   5.225   1.138   7.583 -1.2558  0.7967  1.4347
   12MOL    H63 3605   5.446   1.201   7.499  0.0320  0.0081 -0.5713
   12MOL    H64 3606   5.641   1.351   7.551  0.3590  0.9453 -0.0205
   12MOL    H65 3607   5.725   1.488   7.483 -0.1014  3.1814  1.0559
   12MOL    C66 3608   5.573   1.536   7.630  0.1290  0.4877 -0.0067
   12MOL    C67 3609   5.561   1.447   7.760 -0.1729  0.0475  0.1784
   12MOL    C68 3610   5.438   1.397   7.804 -0.1080 -0.1694 -1.1405
   12MOL    C69 3611   5.429   1.321   7.919 -0.8888 -0.4074 -0.3229
   12MOL   Cl70 3612   5.283   1.251   7.976 -0.0342  0.2645  0.1074
   12MOL    C71 3613   5.551   1.294   7.987 -0.8460 -0.4960  0.5202
   12MOL    C72 3614   5.678   1.338   7.943 -0.2637  0.2273  0.4117
   12MOL    C73 3615   5.681   1.412   7.824 -0.5958 -0.0546  0.4456
   12MOL    C74 3616   5.643   1.672   7.649 -0.2073 -0.4705 -0.3030
   12MOL    H75 3617   5.470   1.565   7.606 -0.9458 -2.7427  0.4860
   12MOL    H76 3618   5.355   1.407   7.736 -1.7132 -1.6511  0.5608
   12MOL    H77 3619   5.554   1.228   8.073  1.3083  1.4950  2.0399
   12MOL    H78 3620   5.768   1.306   7.994  0.3573  1.2115 -0.0423
   12MOL    H79 3621   5.781   1.438   7.790 -0.2267 -0.5900  1.0997
   12MOL    H80 3622   5.583   1.714   7.730 -0.7383 -0.2862 -0.7842
   12MOL    H81 3623   5.739   1.637   7.686 -0.5951 -0.7012  0.4771
   12MOL    C82 3624   5.668   1.764   7.524 -0.2311  0.2630 -0.5433
   12MOL    C83 3625   5.547   1.816   7.453  0.1635 -0.0894 -0.2660
   12MOL    C84 3626   5.424   1.824   7.516 -0.2227  0.0050 -0.4739
   12MOL    C85 3627   5.308   1.874   7.445 -0.1647 -0.1303  0.6587
   12MOL   Cl86 3628   5.153   1.882   7.521  0.1347 -0.1522 -0.1556
   12MOL    C87 3629   5.325   1.918   7.311 -0.3069 -0.6270  0.1238
   12MOL    C88 3630   5.451   1.913   7.244 -0.8264 -0.1842 -1.1461
   12MOL    C89 3631   5.559   1.852   7.318  0.2724  0.3676  0.1890
   12MOL    C90 3632   5.763   1.890   7.553 -0.3457 -0.7000 -0.2278
   12MOL    H91 3633   5.729   1.701   7.460  3.6900  2.2877  1.0195
   12MOL    H92 3634   5.410   1.794   7.618  0.3735  1.4608  0.0463
   12MOL    H93 3635   5.240   1.963   7.261  1.3745  3.1682  0.5236
   12MOL    H94 3636   5.471   1.951   7.145 -0.1376 -1.4626 -1.5055
   12MOL    H95 3637   5.658   1.838   7.278 -0.1042  0.9547 -0.9511
   12MOL    H96 3638   5.740   1.976   7.489 -1.7441  1.8396  3.4504
   12MOL    H97 3639   5.723   1.937   7.644  0.5381 -0.4856  0.0548
   12MOL    C98 3640   5.920   1.864   7.577  0.0683  0.2460  0.1615
   12MOL    C99 3641   5.989   1.818   7.450 -0.5365  0.4098  0.0691
   12MOL   C100 3642   6.056   1.687   7.441  0.7237 -1.3587 -0.1908
   12MOL   C101 3643   6.119   1.649   7.320 -0.2328 -0.2765  0.5897
   12MOL  Cl102 3644   6.197   1.493   7.316  0.0775  0.2150 -0.0022
   12MOL   C103 3645   6.125   1.737   7.213 -0.1010  0.2534 -0.0468
   12MOL   C104 3646   6.062   1.865   7.221 -0.2436 -0.1692  0.1150
   12MOL   C105 3647   6.002   1.903   7.337  0.3916  0.5234 -0.2532
   12MOL   C106 3648   5.995   1.985   7.649  0.6540  1.2520  0.2238
   12MOL   H107 3649   5.926   1.786   7.653  1.2185  0.0546 -0.1027
   12MOL   H108 3650   6.050   1.626   7.530 -1.7644 -0.6884  0.1388
   12MOL   H109 3651   6.175   1.696   7.126 -1.3905 -0.1669 -0.6106
   12MOL   H110 3652   6.067   1.937   7.141 -1.5127 -0.0002  0.1866
   12MOL   H111 3653   5.958   2.001   7.328  0.5829  0.5246 -1.2184
   12MOL   H112 3654   6.031   2.058   7.576  0.2609  1.5120  0.2912
   12MOL   H113 3655   5.918   2.033   7.710 -1.5292 -0.3004 -1.2089
   12MOL   C114 3656   6.118   1.946   7.727  0.4113 -0.1476 -0.1049
   12MOL   C115 3657   6.227   1.859   7.660 -0.3761  0.3832 -0.1471
   12MOL   C116 3658   6.297   1.901   7.551 -0.8426  0.2516  1.1434
   12MOL   C117 3659   6.388   1.814   7.481 -0.4184 -0.5418  0.1646
   12MOL  Cl118 3660   6.448   1.864   7.330  0.1747 -0.0595  0.0795
   12MOL   C119 3661   6.424   1.695   7.548  0.3009 -0.1359  0.3522
   12MOL   C120 3662   6.363   1.655   7.666 -0.6007  0.6977  0.3566
   12MOL   C121 3663   6.270   1.744   7.720 -0.9161 -0.7520 -0.1767
   12MOL   C122 3664   6.176   2.071   7.806  0.4872  0.6773 -0.2566
   12MOL   H123 3665   6.075   1.874   7.796 -1.1485 -1.3576 -2.2617
   12MOL   H124 3666   6.272   2.000   7.515  0.0985 -0.2347 -0.9349
   12MOL   H125 3667   6.498   1.629   7.507  2.2242  1.5038  1.0879
   12MOL   H126 3668   6.396   1.565   7.716 -0.0753 -0.1244 -1.4428
   12MOL   H127 3669   6.220   1.711   7.810 -1.0304 -0.2517 -0.0561
   12MOL   H128 3670   6.266   2.026   7.847  0.1855 -1.1925 -1.5642
   12MOL   H129 3671   6.211   2.149   7.738  1.9802  0.8663  0.7024
   12MOL   C130 3672   6.091   2.125   7.923  0.2534 -0.0611 -0.2613
   12MOL   C131 3673   6.009   2.016   8.005 -0.1535  0.1190  0.0159
   12MOL   C132 3674   5.866   2.004   7.987 -0.3426 -0.2426 -0.5506
   12MOL   C133 3675   5.797   1.913   8.074  0.0775  0.2666  0.1611
   12MOL  Cl134 3676   5.625   1.920   8.096  0.0584 -0.2078  0.3839
   12MOL   C135 3677   5.870   1.830   8.159  0.2663 -0.2076 -0.4009
   12MOL   C136 3678   6.010   1.845   8.175 -0.3969  1.1885  0.4742
   12MOL   C137 3679   6.077   1.936   8.096 -0.1380  0.1603  0.2364
   12MOL   C138 3680   6.165   2.229   8.011 -0.6516  0.4941  0.2247
   12MOL   H139 3681   6.013   2.191   7.884  1.0524 -0.2118 -2.1790
   12MOL   H140 3682   5.800   2.070   7.931 -1.8180  0.7805  2.2861
   12MOL   H141 3683   5.813   1.762   8.222  0.0030 -1.5405 -2.0524
   12MOL   H142 3684   6.070   1.788   8.244 -0.2646 -0.4922 -1.0022
   12MOL   H143 3685   6.184   1.945   8.088 -0.1687 -1.0024 -1.6674
   12MOL   H144 3686   6.269   2.197   8.021 -0.6990  0.6705  1.2842
   12MOL   H145 3687   6.163   2.326   7.962 -0.2124  0.1792 -0.4271
   12MOL   C146 3688   6.109   2.263   8.150  0.2204  0.0704  0.6917
   12MOL   C147 3689   6.196   2.362   8.229  0.7976 -0.3835 -0.0907
   12MOL   C148 3690   6.266   2.320   8.345 -0.1214  0.3729 -0.4727
   12MOL   C149 3691   6.343   2.408   8.422 -0.6231  0.1633  0.1122
   12MOL  Cl150 3692   6.422   2.346   0.129  0.0607  0.3735 -0.1749
   12MOL   C151 3693   6.364   2.540   8.372 -0.1711  0.0732  0.5514
   12MOL   C152 3694   6.294   2.579   8.256  0.3969 -0.8603 -0.0871
   12MOL   C153 3695   6.212   2.493   8.186 -0.5106  0.0194  0.2044
   12MOL   C154 3696   5.961   2.290   8.154 -0.0334  0.5998 -0.0222
   12MOL   H155 3697   6.122   2.168   8.200 -0.2215 -1.0283 -1.2250
   12MOL   H156 3698   6.255   2.220   8.385  0.0324 -0.5309 -2.5892
   12MOL   H157 3699   6.422   2.613   8.427 -0.4181  1.8237 -1.4797
   12MOL   H158 3700   6.292   2.683   8.229 -0.6486 -0.8590 -0.0364
   12MOL   H159 3701   6.155   2.523   8.100 -0.2604  0.5038  0.2112
   12MOL   H160 3702   5.945   2.389   8.110 -0.0097  1.3836  1.7020
   12MOL   H161 3703   5.913   2.222   8.083  3.1039  0.1701 -1.8183
   12MOL   C162 3704   5.912   2.285   8.302  0.2230 -0.4226  1.6394
   12MOL   C163 3705   5.796   2.378   8.346 -0.3169 -0.5434 -0.2314
   12MOL   C164 3706   5.661   2.350   8.307  0.6771  0.4720  0.9438
   12MOL   C165 3707   5.549   2.426   8.344 -0.4963 -0.1067 -0.0663
   12MOL  Cl166 3708   5.388   2.370   8.311  0.3270  0.1085 -0.1786
   12MOL   C167 3709   5.571   2.546   8.416 -0.7913 -1.1765 -0.4884
   12MOL   C168 3710   5.704   2.575   0.025 -0.5617  0.0157 -0.2132
   12MOL   C169 3711   5.817   2.494   8.422 -0.2215  0.4616 -0.3243
   12MOL   C170 3712   5.873   2.145   8.343 -0.0385 -0.1181 -0.3040
   12MOL   H171 3713   5.994   2.309   8.369  0.9892  1.0855  0.1894
   12MOL   H172 3714   5.642   2.268   8.240 -0.8664  2.1974 -0.8042
   12MOL   H173 3715   5.498   2.619   0.012  1.8096  0.9754  0.7509
   12MOL   H174 3716   5.721   2.668   0.077  0.5310 -1.1919  1.6215
   12MOL   H175 3717   5.915   2.533   0.007 -0.1064  0.4074 -0.7766
   12MOL   H176 3718   5.783   2.119   8.287 -0.3288  2.5076 -1.1027
   12MOL   H177 3719   5.952   2.085   8.298 -1.5892 -1.4895 -1.2320
   12MOL   C178 3720   5.867   2.121   0.063 -0.0295 -0.2741  0.0329
   12MOL   C179 3721   5.727   2.074   0.106 -0.1876 -0.1994  0.4425
   12MOL   C180 3722   5.669   1.954   0.052 -0.6350  0.6565  0.1022
   12MOL   C181 3723   5.547   1.907   0.100  0.5403  0.2370  0.4079
   12MOL  Cl182 3724   5.489   1.751   0.063  0.0298 -0.0131  0.0354
   12MOL   C183 3725   5.473   1.986   0.192 -0.3769  0.4099  0.1380
   12MOL   C184 3726   5.515   2.121   0.221 -0.6036  0.4596  0.8355
   12MOL   C185 3727   5.645   2.159   0.186  0.1165  0.0275 -0.0326
   12MOL   C186 3728   5.976   2.021   0.098  0.4407 -0.1980 -0.1971
   12MOL   H187 3729   5.886   2.212   0.119  1.7103  0.1708 -1.2397
   12MOL   H188 3730   5.733   1.884   8.435 -0.9856  0.2882  0.1646
   12MOL   H189 3731   5.384   1.942   0.234  0.2942 -2.8903 -1.6933
   12MOL   H190 3732   5.454   2.186   0.282 -0.0539  0.5876  1.2512
   12MOL   H191 3733   5.682   2.253   0.222  0.4295 -0.0734 -0.0875
   12MOL   H192 3734   5.955   1.928   0.046  0.4047 -0.3783  0.1343
   12MOL   H193 3735   6.068   2.059   0.055 -0.1856 -0.3770 -1.7277
   12MOL   C194 3736   6.016   1.996   0.248  0.1777  0.5032 -0.5010
   12MOL   C195 3737   6.036   2.131   0.327  0.1055  0.4680  0.2210
   12MOL   C196 3738   5.927   2.213   0.377  0.7212  0.8260  0.6390
   12MOL   C197 3739   5.954   2.341   0.425 -0.0382 -0.2045  0.3828
   12MOL  Cl198 3740   5.830   2.442   0.492  0.1183 -0.0586 -0.1608
   12MOL   C199 3741   6.085   2.397   0.429 -0.9102  0.1616 -0.7794
   12MOL   C200 3742   6.186   2.309   0.390  0.1402 -0.1432  0.1976
   12MOL   C201 3743   6.167   2.180   0.346 -0.1846  0.0173  0.1273
   12MOL   C202 3744   5.917   1.917   0.330 -0.0381  0.4795 -0.4324
   12MOL   H203 3745   6.112   1.944   0.242  0.0997 -0.4885  4.6850
   12MOL   H204 3746   5.821   2.191   0.372  1.4006 -2.5095 -0.2844
   12MOL   H205 3747   6.128   2.489   0.465  0.0780 -1.0014  1.0230
   12MOL   H206 3748   6.287   2.345   0.389  0.6251 -1.4713 -1.2630
   12MOL   H207 3749   6.255   2.124   0.320  0.2753  0.6953  0.2031
   12MOL   H208 3750   5.945   1.916   0.436  0.7534  0.4437 -0.6358
   12MOL   H209 3751   5.821   1.968   0.328  0.0394  0.6376 -0.1765
   12MOL   C210 3752   5.906   1.773   0.277 -0.5216  0.3075 -0.2186
   12MOL   C211 3753   6.041   1.705   0.266 -0.1271 -0.8011 -0.3119
   12MOL   C212 3754   6.097   1.649   0.385 -0.9409  0.0164  0.4062
   12MOL   C213 3755   6.218   1.575   0.383  0.3874  0.0557 -0.1284
   12MOL  Cl214 3756   6.293   1.523   0.528  0.0414  0.2044  0.2761
   12MOL   C215 3757   6.289   1.561   0.264  0.0993 -0.7484  0.0218
   12MOL   C216 3758   6.232   1.614   0.151  0.5966  0.7847  0.5948
   12MOL   C217 3759   6.108   1.689   0.144  0.3531  0.3441 -0.2468
   12MOL   C218 3760   5.795   1.695   0.360  0.0365 -0.6270 -0.1669
   12MOL   H219 3761   5.866   1.775   0.175 -0.3942 -0.5703 -0.2895
   12MOL   H220 3762   6.044   1.655   0.479  0.7109 -0.6241  1.3932
   12MOL   H221 3763   6.382   1.507   0.269  1.1095  0.9483 -0.4021
   12MOL   H222 3764   6.282   1.595   0.057  0.6411  2.1149  0.3393
   12MOL   H223 3765   6.071   1.734   0.052  1.8759 -0.5169 -1.3089
   12MOL   H224 3766   5.834   1.704   0.461 -0.3633  2.0495 -0.2060
   12MOL   H225 3767   5.699   1.747   0.370  0.2890 -0.0168 -0.8625
   12MOL   C226 3768   5.777   1.541   0.338  0.2140 -0.4306 -1.1938
   12MOL   C227 3769   5.726   1.477   0.470 -0.1208 -0.4155 -0.5261
   12MOL   C228 3770   5.606   1.515   0.530 -0.6928  0.5125 -0.0971
   12MOL   C229 3771   5.565   1.455   0.651  0.3074  0.1094 -0.7200
   12MOL  Cl230 3772   5.430   1.506   0.735 -0.0074 -0.2292  0.6991
   12MOL   C231 3773   5.647   1.356   0.711 -0.0871 -0.2965 -0.0929
   12MOL   C232 3774   5.758   1.304   0.643  0.0110  1.1180  0.5750
   12MOL   C233 3775   5.801   1.371   0.525 -0.3737  0.0962  0.2143
   12MOL   C234 3776   5.690   1.517   0.216 -0.3320  0.2254 -1.1148
   12MOL   H235 3777   5.877   1.502   0.320  0.6498  0.1618 -0.1258
   12MOL   H236 3778   5.542   1.592   0.490  0.1108 -0.2733 -2.9848
   12MOL   H237 3779   5.615   1.316   0.806 -0.0455 -0.8712 -0.3206
   12MOL   H238 3780   5.809   1.224   0.695 -0.1644  0.7193  0.1393
   12MOL   H239 3781   5.886   1.334   0.471  0.6439 -0.0590  1.8874
   12MOL   H240 3782   5.583   1.512   0.235 -0.8508 -1.0221 -4.0994
   12MOL   H241 3783   5.696   1.605   0.151 -1.4599  0.2768 -1.1536
   12MOL   C242 3784   5.728   1.391   0.138  0.7089 -0.1427  0.5186
   12MOL   C243 3785   5.610   1.333   0.061  0.4378 -0.5429  0.5420
   12MOL   C244 3786   5.568   1.201   0.082  0.7148 -0.0344 -0.9330
   12MOL   C245 3787   5.462   1.145   0.009  0.2391  0.1885 -0.0362
   12MOL  Cl246 3788   5.430   0.979   0.035  0.1976  0.7170 -0.5095
   12MOL   C247 3789   5.390   1.227   8.356 -0.5201  0.0570  0.1525
   12MOL   C248 3790   5.424   1.363   8.339 -0.1301  0.0306 -0.0456
   12MOL   C249 3791   5.541   1.410   8.400  0.3510 -0.0015 -0.8537
   12MOL   C250 3792   5.845   1.422   0.045  1.3890  0.6040 -0.4151
   12MOL   H251 3793   5.759   1.310   0.204  0.1337 -1.4911 -0.8146
   12MOL   H252 3794   5.628   1.146   0.152  1.3682  2.9561  0.9696
   12MOL   H253 3795   5.306   1.183   8.303 -0.4938  0.3798 -0.1642
   12MOL   H254 3796   5.375   1.430   8.270  0.8816  0.5996 -0.2214
   12MOL   H255 3797   5.579   1.509   8.377 -1.6187  0.4649 -2.2501
   12MOL   H256 3798   5.828   1.521   0.003 -0.5518  0.0006 -1.1145
   12MOL   H257 3799   5.936   1.440   0.102  1.3374 -3.5295  1.2054
   12MOL   C258 3800   5.880   1.322   8.365 -0.5839  0.1321 -0.2251
   12MOL   C259 3801   5.981   1.393   8.275 -0.3757  0.1810  0.0344
   12MOL   C260 3802   5.944   1.449   8.146 -0.1839  0.6147  0.8342
   12MOL   C261 3803   6.038   1.512   8.062 -0.1683 -0.7871 -0.2171
   12MOL  Cl262 3804   6.003   1.573   7.910  0.0008 -0.1093 -0.0024
   12MOL   C263 3805   6.172   1.516   8.098 -0.1377 -0.5436 -0.8362
   12MOL   C264 3806   6.210   1.470   8.226  0.2103  0.1384 -0.8228
   12MOL   C265 3807   6.115   1.418   8.319  0.0477 -0.2454 -0.2039
   12MOL   C266 3808   5.923   1.184   8.407  0.1967  0.2349  0.0185
   12MOL   H267 3809   5.794   1.309   8.300 -1.6388 -0.2256  1.2236
   12MOL   H268 3810   5.842   1.453   8.114  0.2836  0.8343 -0.6640
   12MOL   H269 3811   6.251   1.549   8.032 -0.3290  0.5537 -0.5364
   12MOL   H270 3812   6.315   1.479   8.249 -0.7901  2.8346  3.2940
   12MOL   H271 3813   6.155   1.385   8.414  0.8011  1.2050  0.0064
   12MOL   H272 3814   6.025   1.198   0.008  1.9465  1.1554 -4.7919
   12MOL   H273 3815   5.860   1.144   0.051 -0.1394  0.2342 -0.2513
   12MOL   C274 3816   5.916   1.073   8.299 -0.3604 -0.0860 -0.0075
   12MOL   C275 3817   6.015   1.099   8.180  0.4420  0.6165 -0.0299
   12MOL   C276 3818   5.949   1.118   8.060 -0.0208  0.1156  0.1457
   12MOL   C277 3819   6.034   1.154   7.947 -0.0274 -0.1759 -0.2667
   12MOL  Cl278 3820   5.957   1.192   7.797  0.4261  0.0427 -0.3220
   12MOL   C279 3821   6.174   1.163   7.957  0.8472 -1.0678  0.2267
   12MOL   C280 3822   6.232   1.128   8.085  0.4512  0.0905 -0.2952
   12MOL   C281 3823   6.156   1.098   8.195  0.3000  0.8283 -0.1958
   12MOL   C282 3824   5.946   0.931   8.354  0.4297  0.3188 -0.5212
   12MOL   H283 3825   5.815   1.073   8.260 -0.8226 -0.0252  1.1783
   12MOL   H284 3826   5.842   1.126   8.051 -0.0101  3.5272  2.1566
   12MOL   H285 3827   6.231   1.180   7.867  1.8506 -1.1816  0.8342
   12MOL   H286 3828   6.339   1.137   8.100  0.6175 -0.1078 -1.3541
   12MOL   H287 3829   6.200   1.092   8.293  1.1131 -1.3712 -0.6698
   12MOL   H288 3830   6.053   0.909   8.346  0.1572 -1.3513  0.2349
   12MOL   H289 3831   5.939   0.936   0.028 -1.1419  3.3833 -0.7130
   12MOL   C290 3832   5.861   0.819   8.302  0.1097 -0.0612 -0.2449
   12MOL   C291 3833   5.862   0.804   8.151  0.4894  0.3892 -0.6519
   12MOL   C292 3834   5.982   0.783   8.085  0.2842 -0.6667 -0.3105
   12MOL   C293 3835   5.989   0.790   7.944  0.0049 -0.4537 -0.1762
   12MOL  Cl294 3836   6.143   0.782   7.863 -0.1389 -0.1836 -0.1132
   12MOL   C295 3837   5.875   0.811   7.870 -0.3424  0.1439  0.3398
   12MOL   C296 3838   5.751   0.823   7.933 -0.1813 -0.2570  0.0849
   12MOL   C297 3839   5.742   0.822   8.072 -0.4484  0.3771 -0.5572
   12MOL   C298 3840   5.892   0.692   8.380  0.2709  0.0070  0.2779
   12MOL   H299 3841   5.759   0.847   8.329  0.2043 -0.0984  0.1421
   12MOL   H300 3842   6.079   0.774   8.132 -0.7933 -1.2123  1.8366
   12MOL   H301 3843   5.878   0.814   7.762 -2.8862  1.1476  0.2500
   12MOL   H302 3844   5.670   0.835   7.862  1.6415  1.6046 -1.7551
   12MOL   H303 3845   5.647   0.853   8.111 -0.1049  0.7383 -0.0045
   12MOL   H304 3846   6.001   0.686   8.375  0.0946 -1.5958 -3.2854
   12MOL   H305 3847   5.859   0.706   0.048 -2.3747 -1.8542 -0.2798
   12MOL   C306 3848   5.809   0.566   8.341  0.2420 -0.3203  0.3844
   12MOL   C307 3849   5.849   0.453   8.432  0.2581  0.0721  0.5449
   12MOL   C308 3850   5.924   0.345   8.384 -0.2741 -0.0711 -0.2918
   12MOL   C309 3851   5.975   0.253   0.045  0.5081 -0.3379 -0.6899
   12MOL  Cl310 3852   6.065   0.119   8.428  0.1152 -0.1044  0.0544
   12MOL   C311 3853   5.954   0.269   0.181  0.3731  0.2806  0.3895
   12MOL   C312 3854   5.864   0.359   0.230 -0.3519 -0.4504  0.2837
   12MOL   C313 3855   5.815   0.457   0.135  0.2710 -0.4859 -0.4087
   12MOL   C314 3856   5.657   0.595   8.334 -0.3010  0.0036  0.0038
   12MOL   H315 3857   5.834   0.546   8.236  0.1785  1.2661  0.0400
   12MOL   H316 3858   5.944   0.344   8.277  0.2260  2.0438 -0.2383
   12MOL   H317 3859   5.996   0.195   0.247 -1.0803 -0.0391  0.9688
   12MOL   H318 3860   5.842   0.364   0.335 -0.7787  0.6501  0.1571
   12MOL   H319 3861   5.746   0.534   0.168 -0.5708 -1.0351 -0.8769
   12MOL   H320 3862   5.628   0.670   8.261  0.2022  0.4169  0.2309
   12MOL   H321 3863   5.603   0.511   8.291  1.1423 -0.4901 -0.8932
   12MOL   H322 3864   5.603   0.633   8.421 -0.4429 -2.8167  1.2281
   13MOL     C1 3865   4.481   7.297   1.397  0.0059  0.8435 -0.1982
   13MOL     C2 3866   4.379   7.209   1.314 -0.5852  0.4443 -0.4626
   13MOL     C3 3867   4.406   7.067   1.289 -0.0704 -0.2240  0.4636
   13MOL     C4 3868   4.307   6.986   1.228 -0.1543  0.8175 -0.4019
   13MOL    Cl5 3869   4.325   6.811   1.224  0.0546  0.0627  0.3181
   13MOL     C6 3870   4.196   7.049   1.184  0.1309 -0.3642 -0.5457
   13MOL     C7 3871   4.173   7.185   1.188 -0.3094  0.2218 -0.4297
   13MOL     C8 3872   4.263   7.269   1.259 -0.0974 -0.4361 -1.0935
   13MOL     C9 3873   4.412   7.359   1.519  0.0002  0.2995 -1.0280
   13MOL    H10 3874   4.527   7.371   1.331  0.6256  1.3011  0.7317
   13MOL    H11 3875   4.497   7.036   1.337 -0.3590  1.5413  2.2482
   13MOL    H12 3876   4.121   6.991   1.133 -0.5579  0.3239 -0.3240
   13MOL    H13 3877   4.088   7.235   1.144 -0.9370 -0.6392 -0.1892
   13MOL    H14 3878   4.243   7.373   1.278 -1.1798 -0.7626 -0.4228
   13MOL    H15 3879   4.495   7.418   1.557 -1.1771  0.1330  1.8705
   13MOL    H16 3880   4.344   7.439   1.492  1.7979  1.1435 -3.2541
   13MOL    H17 3881   4.558   7.226   1.424 -1.2598  0.1270  1.6369
   13MOL    C18 3882   4.360   7.269   1.634  0.3796  0.4442 -0.5046
   13MOL    C19 3883   4.474   7.180   1.679 -0.3222 -0.3850  0.8847
   13MOL    C20 3884   4.581   7.235   1.757  0.3341  0.9871  0.1587
   13MOL    C21 3885   4.684   7.150   1.810 -0.4404  0.3158  0.3581
   13MOL   Cl22 3886   4.803   7.227   1.917  0.1068  0.3468  0.2942
   13MOL    C23 3887   4.679   7.016   1.782 -0.0502 -0.3427 -0.2761
   13MOL    C24 3888   4.572   6.954   1.708 -0.6488 -0.8681  0.4114
   13MOL    C25 3889   4.469   7.041   1.656  0.3678  0.5915 -0.1834
   13MOL    C26 3890   4.300   7.353   1.746 -0.0634 -0.0149  0.5339
   13MOL    H27 3891   4.280   7.207   1.592  1.0787  0.5520 -2.0480
   13MOL    H28 3892   4.595   7.342   1.768  1.9299  0.7573  0.6149
   13MOL    H29 3893   4.755   6.959   1.834  0.7325  1.5071  0.6240
   13MOL    H30 3894   4.573   6.847   1.689  0.1314 -0.7446 -0.2924
   13MOL    H31 3895   4.402   6.994   1.586 -0.3467 -1.2656  1.6888
   13MOL    H32 3896   4.288   7.287   1.831 -0.8285 -0.0933  0.3735
   13MOL    H33 3897   4.363   7.429   1.792 -0.9048  0.4588  0.9211
   13MOL    C34 3898   4.163   7.423   1.716  0.0809 -0.6327 -0.4955
   13MOL    C35 3899   4.062   7.336   1.653 -0.3813 -0.1505  0.0933
   13MOL    C36 3900   4.019   7.220   1.708  0.7750  0.5244  0.3266
   13MOL    C37 3901   3.920   7.143   1.648  0.7633  0.5621 -0.3903
   13MOL   Cl38 3902   3.859   6.994   1.714  0.1053 -0.1960  0.3377
   13MOL    C39 3903   3.855   7.186   1.532 -0.0042  0.2210  1.1674
   13MOL    C40 3904   3.887   7.313   1.480 -0.1642  0.8761  0.3859
   13MOL    C41 3905   3.992   7.388   1.538  0.3713  0.4930 -0.0925
   13MOL    C42 3906   4.102   7.498   1.839 -0.2972 -0.1438 -0.1133
   13MOL    H43 3907   4.176   7.509   1.650 -1.4152 -0.0849 -0.1037
   13MOL    H44 3908   4.063   7.176   1.797  0.8449 -0.8578 -0.3803
   13MOL    H45 3909   3.765   7.141   1.493  0.8564 -2.8026  2.5483
   13MOL    H46 3910   3.822   7.343   1.399 -2.2328 -1.0741  1.2798
   13MOL    H47 3911   4.029   7.478   1.491  2.5804 -0.7588 -0.8495
   13MOL    H48 3912   3.996   7.506   1.817 -0.1948 -0.4803 -0.7569
   13MOL    H49 3913   4.095   7.430   1.923 -0.6190  0.3779  0.2864
   13MOL    C50 3914   4.144   7.644   1.862 -0.0622  0.0008  0.5114
   13MOL    C51 3915   4.109   7.732   1.743  0.0376  0.7345 -0.6636
   13MOL    C52 3916   3.977   7.739   1.689 -0.5268  0.0910 -0.7805
   13MOL    C53 3917   3.952   7.837   1.591 -0.6086  0.4316 -0.4501
   13MOL   Cl54 3918   3.794   7.835   1.517  0.3272  0.2734 -0.4921
   13MOL    C55 3919   4.045   7.928   1.545 -0.1098  0.5270 -0.3893
   13MOL    C56 3920   4.179   7.910   1.593  0.1941 -0.1208  0.1914
   13MOL    C57 3921   4.211   7.815   1.690  0.0384  0.1558  0.2675
   13MOL    C58 3922   4.067   7.706   1.982 -0.3486  0.3023  0.6494
   13MOL    H59 3923   4.251   7.645   1.884  0.2254 -1.5258 -0.7020
   13MOL    H60 3924   3.912   7.658   1.718  1.2561 -1.4666 -1.1094
   13MOL    H61 3925   4.028   7.978   1.451 -0.5939 -0.9990 -1.1281
   13MOL    H62 3926   4.254   7.975   1.551  0.6874 -0.3411  0.7104
   13MOL    H63 3927   4.310   7.808   1.732  0.7368  1.6028 -1.0798
   13MOL    H64 3928   3.963   7.675   1.977  0.1518 -1.7921  2.3504
   13MOL    H65 3929   4.099   7.654   2.073  0.7264  0.3214  0.2865
   13MOL    C66 3930   4.089   7.856   2.012 -0.6857 -0.7470 -0.0633
   13MOL    C67 3931   3.973   7.949   1.959  0.2814  0.2090  0.2420
   13MOL    C68 3932   3.839   7.910   1.962  0.6335 -0.1158  0.3931
   13MOL    C69 3933   3.742   7.989   1.894 -0.1176  0.7550 -0.4880
   13MOL   Cl70 3934   3.583   7.927   1.895 -0.3650 -0.0095  0.2471
   13MOL    C71 3935   3.780   8.115   1.843  0.6249  0.2075  0.7116
   13MOL    C72 3936   3.915   8.149   1.835 -0.2564 -0.0638  0.6554
   13MOL    C73 3937   4.008   8.071   1.904 -0.2913  0.1164 -0.6019
   13MOL    C74 3938   4.123   7.887   2.157  0.0477 -0.5604 -0.7384
   13MOL    H75 3939   4.178   7.889   1.959 -0.3822 -1.8417 -0.2575
   13MOL    H76 3940   3.802   7.818   2.006 -0.4349 -0.0527 -0.3550
   13MOL    H77 3941   3.701   8.168   1.792  1.9840  1.0289 -0.5806
   13MOL    H78 3942   3.950   8.244   1.798  0.7313 -1.2592 -1.5401
   13MOL    H79 3943   4.110   8.108   1.908 -0.4318  0.3784  0.5949
   13MOL    H80 3944   4.121   7.996   2.169 -4.1317 -0.7305  0.7375
   13MOL    H81 3945   4.042   7.849   2.219  0.7002  0.9166  1.0848
   13MOL    C82 3946   4.267   7.851   2.203  0.0211  0.8511  0.7554
   13MOL    C83 3947   4.375   7.915   2.111  0.1356 -1.0320 -0.3712
   13MOL    C84 3948   4.411   8.051   2.125  0.4274  0.5626  0.3280
   13MOL    C85 3949   4.486   8.116   2.022  0.3422 -0.1036  0.0387
   13MOL   Cl86 3950   4.496   8.285   2.029 -0.1942  0.3729 -0.0242
   13MOL    C87 3951   4.537   8.040   1.917 -0.0818  0.7173  0.4379
   13MOL    C88 3952   4.521   7.899   1.924 -0.0885  0.0642  0.2308
   13MOL    C89 3953   4.436   7.843   2.013  0.0328  0.4238  0.7889
   13MOL    C90 3954   4.280   7.864   2.355  0.7559  0.7271 -0.4902
   13MOL    H91 3955   4.286   7.746   2.182 -2.3304  0.4446  0.4933
   13MOL    H92 3956   4.370   8.115   2.201 -1.7214  0.5341 -0.7581
   13MOL    H93 3957   4.598   8.085   1.840 -1.3673 -0.1940 -1.1585
   13MOL    H94 3958   4.573   7.844   1.847  1.0017 -1.2704  1.8916
   13MOL    H95 3959   4.422   7.736   2.018 -0.9443  0.3559 -2.3539
   13MOL    H96 3960   4.263   7.963   2.395 -2.3543  0.3180 -0.6757
   13MOL    H97 3961   4.193   7.809   2.392  0.9810  0.2854 -0.6137
   13MOL    C98 3962   4.401   7.786   2.410 -0.4922 -0.0733 -0.3959
   13MOL    C99 3963   4.507   7.884   2.456  0.3832  0.6316  0.5468
   13MOL   C100 3964   4.633   7.896   2.381 -0.7398 -0.4132 -0.7448
   13MOL   C101 3965   4.724   7.993   2.426 -0.0092  0.4807 -0.4669
   13MOL  Cl102 3966   4.871   8.019   2.346  0.3803  0.4662 -0.2471
   13MOL   C103 3967   4.685   8.077   2.533 -0.1927  0.8764 -0.0988
   13MOL   C104 3968   4.566   8.059   2.605 -0.3100 -0.3176  0.6107
   13MOL   C105 3969   4.475   7.965   2.561 -0.0001 -0.2228 -0.2291
   13MOL   C106 3970   4.367   7.679   2.518  0.0384 -0.7826  0.3359
   13MOL   H107 3971   4.456   7.723   2.340 -0.2164 -0.1059 -0.1533
   13MOL   H108 3972   4.653   7.831   2.297 -4.4585 -1.8385 -0.6171
   13MOL   H109 3973   4.748   8.155   2.574  0.7072  0.1357 -0.0594
   13MOL   H110 3974   4.536   8.122   2.688 -0.8992 -0.4779  0.5187
   13MOL   H111 3975   4.380   7.961   2.612 -0.1547  0.9576 -0.4034
   13MOL   H112 3976   4.456   7.652   2.574  0.4315  1.5905  0.9294
   13MOL   H113 3977   4.306   7.716   2.601  1.0319  3.1349 -0.5778
   13MOL   C114 3978   4.293   7.546   2.453  0.1701  0.1918 -0.4208
   13MOL   C115 3979   4.361   7.471   2.335  0.3082  0.1724 -0.0501
   13MOL   C116 3980   4.497   7.436   2.344  0.0505 -0.8066 -0.2241
   13MOL   C117 3981   4.552   7.356   2.240 -0.6519 -0.3249 -0.2243
   13MOL  Cl118 3982   4.719   7.299   2.250 -0.5157 -0.2900  0.1634
   13MOL   C119 3983   4.476   7.319   2.125  0.4207  0.2190 -0.3912
   13MOL   C120 3984   4.348   7.377   2.110 -0.9230  0.7702 -0.4456
   13MOL   C121 3985   4.292   7.449   2.213 -0.2661 -0.0948  0.2268
   13MOL   C122 3986   4.235   7.437   2.554  0.3968  0.7075  0.6833
   13MOL   H123 3987   4.207   7.590   2.403  1.4104  1.9402 -1.0750
   13MOL   H124 3988   4.557   7.466   2.429 -1.3001  1.0305  0.1274
   13MOL   H125 3989   4.524   7.251   2.056  1.0177 -0.3436  0.5704
   13MOL   H126 3990   4.285   7.364   2.023 -2.3751  0.8364  0.5635
   13MOL   H127 3991   4.187   7.476   2.206 -0.3847 -0.8440 -0.9559
   13MOL   H128 3992   4.220   7.349   2.491 -0.8563  2.1281 -1.0663
   13MOL   H129 3993   4.311   7.418   2.630  1.2205  1.9673  0.1909
   13MOL   C130 3994   4.100   7.469   2.615 -1.1478  0.1070  0.1345
   13MOL   C131 3995   3.995   7.495   2.506  0.4102 -0.1935 -0.3044
   13MOL   C132 3996   3.937   7.624   2.497  0.3760 -0.0305  0.3217
   13MOL   C133 3997   3.850   7.649   2.389  0.3931  0.5019 -0.6186
   13MOL  Cl134 3998   3.772   7.801   2.370 -0.5621  0.3890  0.1059
   13MOL   C135 3999   3.820   7.540   2.290 -0.7324  0.8615 -0.7716
   13MOL   C136 4000   3.871   7.407   2.309  0.2339 -0.2827  0.1883
   13MOL   C137 4001   3.960   7.385   2.416  0.7825  0.1370 -0.3157
   13MOL   C138 4002   4.049   7.353   2.696  0.5335 -0.1829 -0.6678
   13MOL   H139 4003   4.105   7.562   2.671  1.0235 -2.1601  3.8500
   13MOL   H140 4004   3.960   7.704   2.566  1.0056  0.2971 -0.2604
   13MOL   H141 4005   3.770   7.566   2.198 -1.0694  2.9314 -0.0270
   13MOL   H142 4006   3.851   7.324   2.243 -1.5629 -0.3889  0.8594
   13MOL   H143 4007   4.013   7.292   2.428 -1.4859 -1.0739  0.4759
   13MOL   H144 4008   3.943   7.368   2.716  0.9191 -0.1140  1.4123
   13MOL   H145 4009   4.055   7.255   2.649 -2.0233  0.0710 -1.5850
   13MOL   C146 4010   4.115   7.335   2.838  0.4203 -0.1845 -0.2389
   13MOL   C147 4011   4.127   7.465   2.920  0.1745 -0.3509  0.2640
   13MOL   C148 4012   4.253   7.485   2.986 -0.3569 -0.2384 -0.1915
   13MOL   C149 4013   4.258   7.595   3.069 -0.1735 -0.2185 -0.0924
   13MOL  Cl150 4014   4.407   7.628   3.155  0.1085 -0.1304  0.2080
   13MOL   C151 4015   4.150   7.680   3.093  0.0395  0.3568  0.0952
   13MOL   C152 4016   4.025   7.660   3.029  0.3315  0.0966  0.1308
   13MOL   C153 4017   4.014   7.547   2.948 -0.3432  0.6370  0.2900
   13MOL   C154 4018   4.049   7.223   2.928 -0.0029 -0.2291  0.4006
   13MOL   H155 4019   4.213   7.292   2.815 -0.7077 -1.8728 -2.0478
   13MOL   H156 4020   4.334   7.414   2.976  0.5762  0.9912 -1.3859
   13MOL   H157 4021   4.157   7.759   3.167 -0.5083 -1.5829  2.2691
   13MOL   H158 4022   3.943   7.723   3.060 -0.4269 -1.4221  1.2546
   13MOL   H159 4023   3.925   7.511   2.899 -0.0695 -2.7826  2.1603
   13MOL   H160 4024   4.093   7.245   3.025 -0.0132 -1.5992  0.7193
   13MOL   H161 4025   3.941   7.235   2.939  0.1157  1.1498  0.1943
   13MOL   C162 4026   4.077   7.075   2.898  0.9083 -0.0739  0.3920
   13MOL   C163 4027   4.227   7.033   2.907  0.1317 -0.0307  0.1973
   13MOL   C164 4028   4.256   6.908   2.848 -0.7804 -0.4047 -0.2467
   13MOL   C165 4029   4.388   6.856   2.859 -0.3848 -0.8258 -0.1511
   13MOL  Cl166 4030   4.415   6.697   2.809 -0.1579  0.2012 -0.0468
   13MOL   C167 4031   4.485   6.937   2.918  0.3349  0.5270  0.1474
   13MOL   C168 4032   4.455   7.061   2.967 -0.1628 -0.0063 -0.0045
   13MOL   C169 4033   4.325   7.117   2.961 -0.4450  0.8252  0.3219
   13MOL   C170 4034   3.988   6.980   2.985 -0.1536 -0.1863  0.1607
   13MOL   H171 4035   4.045   7.059   2.796  0.3282 -2.6351  0.9459
   13MOL   H172 4036   4.175   6.846   2.812 -1.8779 -0.2856  1.9320
   13MOL   H173 4037   4.583   6.897   2.939 -0.3540 -1.3775 -0.1930
   13MOL   H174 4038   4.533   7.102   3.029  0.9353 -2.8674  0.5638
   13MOL   H175 4039   4.300   7.202   3.023  0.2762  1.3442 -0.0853
   13MOL   H176 4040   4.015   6.875   2.969 -0.9162 -0.4324  0.4295
   13MOL   H177 4041   4.006   6.997   3.091  0.3277 -1.0020  0.2167
   13MOL   C178 4042   3.835   6.990   2.963 -0.4399 -0.2840  0.5459
   13MOL   C179 4043   3.797   6.985   2.819 -0.1619 -0.4843 -0.4288
   13MOL   C180 4044   3.862   6.884   2.739 -0.3326 -0.0902 -0.8745
   13MOL   C181 4045   3.833   6.890   2.602  0.0640 -0.2750  0.1991
   13MOL  Cl182 4046   3.882   6.764   2.492  0.3480  0.1902 -0.0215
   13MOL   C183 4047   3.757   6.998   2.553 -0.0233  0.5772  0.1271
   13MOL   C184 4048   3.702   7.098   2.628 -0.0166 -0.6858  0.8117
   13MOL   C185 4049   3.724   7.094   2.764 -0.3551 -1.6088  0.4900
   13MOL   C186 4050   3.755   6.886   3.049 -0.4288  0.4114 -0.8612
   13MOL   H187 4051   3.823   7.090   3.003  3.0674  1.3340 -2.2086
   13MOL   H188 4052   3.932   6.808   2.774  0.7532  1.2409 -0.1008
   13MOL   H189 4053   3.745   7.004   2.445 -0.2916 -1.0112  0.0621
   13MOL   H190 4054   3.653   7.177   2.574  2.5767  0.0826 -0.4941
   13MOL   H191 4055   3.692   7.174   2.830  0.5759 -0.0172 -0.9474
   13MOL   H192 4056   3.652   6.922   3.045 -0.2764  0.8396 -0.9794
   13MOL   H193 4057   3.749   6.788   3.002  0.6713  0.6534 -1.5233
   13MOL   C194 4058   3.781   6.877   3.200  0.3292  1.0729 -0.2542
   13MOL   C195 4059   3.764   7.014   3.267  0.1363 -0.0859 -0.2749
   13MOL   C196 4060   3.628   7.063   3.275 -0.3245  0.1179 -0.4762
   13MOL   C197 4061   3.602   7.182   3.346  0.1927  0.3917 -0.0380
   13MOL  Cl198 4062   3.440   7.220   3.357 -0.0607 -0.4607  0.1447
   13MOL   C199 4063   3.709   7.264   3.396 -1.0521 -0.7105 -0.4636
   13MOL   C200 4064   3.841   7.216   3.380  0.1796  0.0264  0.7467
   13MOL   C201 4065   3.867   7.088   3.326 -0.9365  0.5959  0.3946
   13MOL   C202 4066   3.692   6.763   3.265 -0.0875  0.4814 -0.0727
   13MOL   H203 4067   3.889   6.864   3.210  0.4033  1.6129 -0.2873
   13MOL   H204 4068   3.539   7.011   3.244  0.5450 -2.0291  0.5686
   13MOL   H205 4069   3.692   7.356   3.451 -0.2389 -0.4178 -0.6931
   13MOL   H206 4070   3.919   7.284   3.411 -0.2590  0.4213  0.9912
   13MOL   H207 4071   3.970   7.055   3.325 -1.0106  0.3879 -0.2211
   13MOL   H208 4072   3.593   6.787   3.225  0.2008  0.2761 -0.9202
   13MOL   H209 4073   3.723   6.667   3.222  0.8660  0.7789 -0.0409
   13MOL   C210 4074   3.671   6.759   3.424  0.0561  0.3042  1.0841
   13MOL   C211 4075   3.532   6.734   3.465 -0.0394 -0.4415  0.0370
   13MOL   C212 4076   3.458   6.828   3.539 -0.5485 -0.2892 -0.1436
   13MOL   C213 4077   3.329   6.798   3.587 -0.2745 -0.1628  0.3632
   13MOL  Cl214 4078   3.241   6.903   3.689 -0.0152  0.3146  0.1063
   13MOL   C215 4079   3.272   6.680   3.547  0.9924  0.5801 -0.7494
   13MOL   C216 4080   3.347   6.587   3.470  0.3323  0.2006  0.6541
   13MOL   C217 4081   3.473   6.614   3.432 -0.9148  0.3991 -0.4921
   13MOL   C218 4082   3.775   6.675   3.491 -0.3436  0.5619  0.0400
   13MOL   H219 4083   3.692   6.865   3.441  0.2191  0.5849 -0.8022
   13MOL   H220 4084   3.502   6.923   3.565  1.2965 -0.7461 -1.4938
   13MOL   H221 4085   3.171   6.664   3.580  1.7845  0.4932  1.6817
   13MOL   H222 4086   3.291   6.511   3.420 -0.9511  2.9174 -2.2066
   13MOL   H223 4087   3.526   6.544   3.369  2.3054  2.7259 -0.5309
   13MOL   H224 4088   3.756   6.570   3.469 -0.8163  0.5095  0.6793
   13MOL   H225 4089   3.877   6.699   3.460  0.4690  0.9411  2.8373
   13MOL   C226 4090   3.759   6.676   3.651 -0.3589 -0.1975 -0.3693
   13MOL   C227 4091   3.808   6.549   3.710 -0.0248  0.0249 -0.1108
   13MOL   C228 4092   3.729   6.431   3.732 -0.7613 -0.1739  0.0738
   13MOL   C229 4093   3.782   6.320   3.808 -0.3633  0.0722  0.1879
   13MOL  Cl230 4094   3.689   6.190   3.849  0.0163  0.5937  0.1783
   13MOL   C231 4095   3.920   6.321   3.836 -0.3196 -0.2810 -0.0777
   13MOL   C232 4096   4.000   6.435   3.809  0.4133  0.1811  0.8712
   13MOL   C233 4097   3.942   6.546   3.747  0.2940 -0.7933  0.0610
   13MOL   C234 4098   3.811   6.810   3.713  0.7511 -0.0206 -0.1493
   13MOL   H235 4099   3.651   6.686   3.663 -0.3511  0.4831 -0.8013
   13MOL   H236 4100   3.626   6.445   3.703 -1.1468 -0.0874  1.4130
   13MOL   H237 4101   3.968   6.233   3.875  0.0395 -0.1459 -0.2132
   13MOL   H238 4102   4.104   6.436   3.837 -0.0832  3.1748  2.9421
   13MOL   H239 4103   4.000   6.630   3.714  0.3003 -0.6222  0.5101
   13MOL   H240 4104   3.906   6.836   3.668  0.5855  0.5914 -0.1394
   13MOL   H241 4105   3.748   6.889   3.673  1.1174  0.2985 -0.0880
   13MOL   C242 4106   3.820   6.828   3.865 -0.2918  0.1483 -0.0518
   13MOL   C243 4107   3.897   6.957   3.899 -0.6316  0.2772 -0.0228
   13MOL   C244 4108   3.855   7.083   3.849 -0.3768  0.2896 -0.3821
   13MOL   C245 4109   3.929   7.201   3.889  0.2702  0.2384  0.3784
   13MOL  Cl246 4110   3.878   7.350   3.817 -0.0284  0.2921  0.2108
   13MOL   C247 4111   4.049   7.181   3.967  0.4608 -0.4853  0.3514
   13MOL   C248 4112   4.091   7.049   4.006 -0.5567 -0.2751 -0.2860
   13MOL   C249 4113   4.019   6.938   3.972 -0.1521 -0.1254 -0.3691
   13MOL   C250 4114   3.676   6.842   3.931 -0.9304  0.5163  1.0405
   13MOL   H251 4115   3.877   6.747   3.910  2.1906  3.0699  2.3141
   13MOL   H252 4116   3.764   7.092   3.792  0.6267  2.3656 -1.7717
   13MOL   H253 4117   4.115   7.261   3.996  2.4347 -1.0582 -2.3354
   13MOL   H254 4118   4.181   7.032   4.063 -0.5351  1.1078  0.1036
   13MOL   H255 4119   4.047   6.835   3.993  0.7345  0.0068 -0.8952
   13MOL   H256 4120   3.633   6.935   3.894  0.9147  1.0815  0.2809
   13MOL   H257 4121   3.616   6.765   3.883  0.7310 -0.2237  0.0976
   13MOL   C258 4122   3.654   6.821   4.083  0.8549 -0.4759 -0.6750
   13MOL   C259 4123   3.713   6.692   4.139  0.1941  0.4143  0.0031
   13MOL   C260 4124   3.824   6.687   4.228 -0.5486 -0.0519 -0.1807
   13MOL   C261 4125   3.869   6.557   4.274  0.2127  0.1175  0.2644
   13MOL  Cl262 4126   4.012   6.535   4.374  0.2672 -0.4147 -0.2992
   13MOL   C263 4127   3.809   6.442   4.223  0.3628  0.4647 -0.8072
   13MOL   C264 4128   3.710   6.446   4.127 -0.0732  0.2686 -0.4991
   13MOL   C265 4129   3.659   6.568   4.083 -0.0952 -0.8131  0.1579
   13MOL   C266 4130   3.675   6.950   4.162  0.6155  0.1979 -0.2963
   13MOL   H267 4131   3.545   6.808   4.086  1.0597 -2.1132  1.1002
   13MOL   H268 4132   3.875   6.775   4.263 -0.5881  0.0879 -0.4706
   13MOL   H269 4133   3.849   6.349   4.259 -2.4669 -1.5844 -2.7301
   13MOL   H270 4134   3.668   6.350   4.098 -0.3763 -0.2727  1.6730
   13MOL   H271 4135   3.582   6.564   4.007  2.5272 -0.5427 -2.6031
   13MOL   H272 4136   3.780   6.960   4.190  0.7429 -1.1484 -0.2699
   13MOL   H273 4137   3.668   7.038   4.099 -0.9450  1.3844  1.5009
   13MOL   C274 4138   3.574   6.963   4.279  1.2937 -0.0633  0.5584
   13MOL   C275 4139   3.649   7.019   4.397 -0.2707 -0.6287  0.3402
   13MOL   C276 4140   3.722   6.934   4.486  0.1753  0.5903  0.4543
   13MOL   C277 4141   3.798   6.986   4.592 -0.3440 -0.0324  0.6525
   13MOL  Cl278 4142   3.873   6.870   4.699 -0.2008  0.0628 -0.4065
   13MOL   C279 4143   3.811   7.126   4.603  0.0269 -0.3573 -0.1262
   13MOL   C280 4144   3.740   7.212   4.517 -0.1951 -0.2312  0.0723
   13MOL   C281 4145   3.658   7.159   4.416 -0.2268 -0.4632 -0.2429
   13MOL   C282 4146   3.445   7.041   4.224 -0.0333 -0.5292  0.2994
   13MOL   H283 4147   3.542   6.864   4.312  0.4046  1.3396  4.2056
   13MOL   H284 4148   3.705   6.829   4.471 -1.8332  0.9003  0.3296
   13MOL   H285 4149   3.864   7.166   4.688 -0.6087 -1.8935  0.9992
   13MOL   H286 4150   3.742   7.319   4.535  1.0160 -0.6161  2.5294
   13MOL   H287 4151   3.607   7.239   4.365  2.4545  2.5352  1.5649
   13MOL   H288 4152   3.487   7.128   4.174  1.2537 -0.5269  1.3625
   13MOL   H289 4153   3.401   6.986   4.140 -1.1794  1.0588 -0.1702
   13MOL   C290 4154   3.341   7.104   4.319  0.0626  0.1672  0.2117
   13MOL   C291 4155   3.268   7.220   4.249 -0.4503 -0.3689 -0.4751
   13MOL   C292 4156   3.228   7.335   4.322 -0.0305 -0.6987  0.4927
   13MOL   C293 4157   3.177   7.449   4.255 -0.4623 -0.0490  0.0990
   13MOL  Cl294 4158   3.143   7.579   4.357  0.1953  0.2587 -0.3059
   13MOL   C295 4159   3.148   7.448   4.116  0.4361 -0.1489  0.0411
   13MOL   C296 4160   3.169   7.326   4.052  0.1829  0.3095 -0.0854
   13MOL   C297 4161   3.230   7.214   4.109  0.1566 -0.0846 -0.9447
   13MOL   C298 4162   3.244   7.000   4.360  0.0677  0.1187 -0.4980
   13MOL   H299 4163   3.392   7.145   4.406 -0.0261  0.6600  0.0333
   13MOL   H300 4164   3.257   7.347   4.426  0.4489 -1.1898  0.4162
   13MOL   H301 4165   3.099   7.528   4.062 -1.6294 -1.2384  0.2467
   13MOL   H302 4166   3.145   7.325   3.947  1.5615 -0.1884 -0.4034
   13MOL   H303 4167   3.238   7.127   4.046  0.1039  0.2947 -1.4803
   13MOL   H304 4168   3.148   7.041   4.390  0.6620 -0.8408  2.9450
   13MOL   H305 4169   3.216   6.931   4.281 -0.7638 -0.7550  0.5451
   13MOL   C306 4170   3.262   6.936   4.500 -0.4603  0.3747  0.0188
   13MOL   C307 4171   3.286   7.038   4.611  0.2488 -1.0068 -0.3492
   13MOL   C308 4172   3.394   7.032   4.705  0.3335  1.2462 -0.1432
   13MOL   C309 4173   3.421   7.138   4.797  0.1258  0.6480 -0.0155
   13MOL  Cl310 4174   3.561   7.137   4.898 -0.3164 -0.0304  0.5714
   13MOL   C311 4175   3.337   7.252   4.795 -0.8545 -0.0685  0.2316
   13MOL   C312 4176   3.227   7.251   4.713 -0.4416 -0.1073 -0.1079
   13MOL   C313 4177   3.196   7.153   4.618 -0.1537  0.0960  0.2986
   13MOL   C314 4178   3.153   6.838   4.543  0.1354 -0.1265  0.2571
   13MOL   H315 4179   3.357   6.882   4.507  0.1573  1.5157  0.5502
   13MOL   H316 4180   3.466   6.951   4.706 -0.4144  0.5701  1.0906
   13MOL   H317 4181   3.354   7.331   4.866  0.8807  1.6237 -2.0058
   13MOL   H318 4182   3.158   7.333   4.726 -0.9700 -0.4871 -0.4983
   13MOL   H319 4183   3.107   7.167   4.560 -0.0805  2.2871  0.6780
   13MOL   H320 4184   3.065   6.897   4.567 -0.8219 -1.7054  0.7479
   13MOL   H321 4185   3.136   6.766   4.463  1.1403  0.2628 -0.3077
   13MOL   H322 4186   3.178   6.789   4.638  0.0858  1.0253  0.8680
   14MOL     C1 4187   1.094   4.320   4.504  0.1147  0.9834  0.2076
   14MOL     C2 4188   1.177   4.219   4.416 -0.4840 -0.2650  0.2732
   14MOL     C3 4189   1.154   4.222   4.275  0.0464  0.1039 -0.0419
   14MOL     C4 4190   1.214   4.128   4.189 -0.0755  0.1221 -0.7871
   14MOL    Cl5 4191   1.208   4.146   4.020  0.2960 -0.0227  0.0719
   14MOL     C6 4192   1.297   4.027   4.240 -0.4441 -0.0072  0.1156
   14MOL     C7 4193   1.327   4.032   4.379 -1.2889 -0.3281 -0.0645
   14MOL     C8 4194   1.265   4.126   4.465  0.1917 -0.3226 -0.4464
   14MOL     C9 4195   0.944   4.294   4.498 -0.0652 -0.6591  0.4478
   14MOL    H10 4196   1.127   4.424   4.491  2.5709 -0.0794 -2.5255
   14MOL    H11 4197   1.084   4.293   4.234  0.2719 -0.1836 -0.9317
   14MOL    H12 4198   1.348   3.952   4.181  0.1319 -0.0318  0.6423
   14MOL    H13 4199   1.401   3.965   4.419  0.0961  0.2751 -1.5323
   14MOL    H14 4200   1.278   4.127   4.572 -0.8153  0.9184 -0.3235
   14MOL    H15 4201   0.900   4.336   4.408  1.6635 -0.3767 -0.2938
   14MOL    H16 4202   0.925   4.188   4.482 -0.6954 -0.2650 -1.5453
   14MOL    H17 4203   1.127   4.300   4.606 -1.7424  1.7107  0.9808
   14MOL    C18 4204   0.865   4.338   4.620  0.1515  0.1896  0.1419
   14MOL    C19 4205   0.919   4.468   4.685 -0.4295  0.0280 -0.2322
   14MOL    C20 4206   0.914   4.587   4.613  0.0752 -0.3902 -0.0845
   14MOL    C21 4207   0.963   4.703   4.677 -0.5626  0.0931  0.4189
   14MOL   Cl22 4208   0.965   4.846   4.589  0.0777  0.0185  0.1346
   14MOL    C23 4209   1.019   4.698   4.805 -0.1961  0.2279  0.1010
   14MOL    C24 4210   1.028   4.578   4.874 -0.0903 -0.3694  0.0362
   14MOL    C25 4211   0.970   4.459   4.816 -0.0983 -0.0592 -0.2027
   14MOL    C26 4212   0.719   4.335   4.580 -1.0529 -0.1105 -0.3192
   14MOL    H27 4213   0.879   4.258   4.693 -4.0117  0.8328  1.7495
   14MOL    H28 4214   0.873   4.596   4.513 -0.3822  1.6050  0.2450
   14MOL    H29 4215   1.064   4.788   4.844  0.4428  0.1823 -0.5152
   14MOL    H30 4216   1.066   4.580   4.975 -0.0225  1.4836 -0.0173
   14MOL    H31 4217   0.962   4.364   4.867  2.2448 -0.8923 -1.2906
   14MOL    H32 4218   0.713   4.436   4.541 -0.5049  0.5679  1.3124
   14MOL    H33 4219   0.706   4.270   4.493  1.5446  0.7497 -1.4208
   14MOL    C34 4220   0.617   4.313   4.692  0.2470  0.0064  0.7263
   14MOL    C35 4221   0.610   4.427   4.799 -0.2861  0.3249 -0.2674
   14MOL    C36 4222   0.664   4.409   4.930  0.2578  0.1471 -0.4112
   14MOL    C37 4223   0.637   4.507   5.030  0.2417  0.3252  0.1092
   14MOL   Cl38 4224   0.679   4.480   5.197 -0.1473 -0.0569  0.2406
   14MOL    C39 4225   0.548   4.616   5.002 -0.1077 -0.2409 -0.5900
   14MOL    C40 4226   0.499   4.632   4.868 -0.7907 -0.6301 -0.8012
   14MOL    C41 4227   0.538   4.545   4.764 -0.7623  0.1846  0.2864
   14MOL    C42 4228   0.479   4.272   4.641 -0.3419  0.1706 -0.1019
   14MOL    H43 4229   0.659   4.233   4.753  0.6210  1.4569  2.4011
   14MOL    H44 4230   0.719   4.320   4.956  0.1860  0.3776  0.5242
   14MOL    H45 4231   0.514   4.683   5.079  0.1708  1.3303 -1.8335
   14MOL    H46 4232   0.427   4.709   4.844 -0.9080 -0.8109 -1.0352
   14MOL    H47 4233   0.498   4.551   4.664 -1.9007  0.4925  0.7600
   14MOL    H48 4234   0.396   4.316   4.696 -0.2807 -1.8385  1.6296
   14MOL    H49 4235   0.462   4.314   4.541  0.9071 -2.1151 -1.3073
   14MOL    C50 4236   0.460   4.117   4.632  0.1039  0.4625  0.0787
   14MOL    C51 4237   0.466   4.055   4.767 -0.1007 -0.3342  0.4044
   14MOL    C52 4238   0.577   3.969   4.790  0.1201 -0.5207 -0.2509
   14MOL    C53 4239   0.590   3.911   4.919 -0.4202  0.7567  0.3593
   14MOL   Cl54 4240   0.729   3.818   4.948 -0.3246 -0.5284  0.1724
   14MOL    C55 4241   0.498   3.936   5.023  0.8501  0.2097 -0.3395
   14MOL    C56 4242   0.390   4.015   4.996  0.8695 -0.8895 -0.5732
   14MOL    C57 4243   0.371   4.077   4.866  0.0635  0.4004  0.1656
   14MOL    C58 4244   0.327   4.081   4.569 -0.1158 -0.5503 -0.0731
   14MOL    H59 4245   0.544   4.078   4.574  1.2446  0.5176  1.6494
   14MOL    H60 4246   0.650   3.948   4.714 -0.3609 -1.4191 -0.4718
   14MOL    H61 4247   0.522   3.878   5.111  1.8071  1.6635  0.3758
   14MOL    H62 4248   0.320   4.051   5.071  0.1417 -1.5289 -0.9432
   14MOL    H63 4249   0.286   4.139   4.840 -0.1937  0.0679  0.2011
   14MOL    H64 4250   0.317   3.972   4.570 -0.2168 -0.5583 -1.1624
   14MOL    H65 4251   0.246   4.127   4.626  0.7539  1.0298 -0.0917
   14MOL    C66 4252   0.310   4.135   4.425 -0.2444 -0.7820  0.8522
   14MOL    C67 4253   0.423   4.098   4.338  0.2149  0.1768 -0.3545
   14MOL    C68 4254   0.520   4.192   4.298  0.4532 -0.4281  1.2299
   14MOL    C69 4255   0.634   4.156   4.220  0.0396  0.6054  0.0576
   14MOL   Cl70 4256   0.751   4.271   4.175  0.1942  0.0420 -0.0398
   14MOL    C71 4257   0.641   4.020   4.176 -0.7366  0.3736 -0.2850
   14MOL    C72 4258   0.544   3.925   4.206  1.0306 -0.9825  0.2626
   14MOL    C73 4259   0.435   3.965   4.286  0.1249 -0.6691  0.5089
   14MOL    C74 4260   0.173   4.113   4.362  0.1536  0.3102 -0.6588
   14MOL    H75 4261   0.317   4.244   4.430  2.3387 -0.8229 -0.9707
   14MOL    H76 4262   0.521   4.296   4.327 -0.7029 -0.6157  2.0002
   14MOL    H77 4263   0.725   3.996   4.112 -2.0732 -0.4159 -1.7734
   14MOL    H78 4264   0.547   3.825   4.167  1.1329 -0.8304 -0.1238
   14MOL    H79 4265   0.360   3.889   4.302 -1.8111  0.9899 -0.6487
   14MOL    H80 4266   0.174   4.138   4.255  1.2155  2.3048 -0.1994
   14MOL    H81 4267   0.144   4.008   4.354 -0.3059  0.3380  0.5514
   14MOL    C82 4268   0.056   4.187   4.437 -0.3909 -0.8398  0.2999
   14MOL    C83 4269   0.091   4.333   4.473  0.7204 -1.5113  0.1441
   14MOL    C84 4270   0.094   4.383   4.612  0.1041 -0.7282 -0.5567
   14MOL    C85 4271   0.129   4.515   4.643 -0.1511  0.4539 -0.1964
   14MOL   Cl86 4272   0.136   4.563   4.807  0.1448  0.1290  0.2639
   14MOL    C87 4273   0.164   4.601   4.534 -0.4536  0.2695  0.1393
   14MOL    C88 4274   0.179   4.548   4.404 -0.4288  0.1640 -0.2603
   14MOL    C89 4275   0.130   4.422   4.368  0.5243  0.0231  0.9638
   14MOL    C90 4276   8.354   4.173   4.372 -0.2792 -0.5024 -0.1229
   14MOL    H91 4277   0.050   4.143   4.537 -0.0355  0.1871  0.7746
   14MOL    H92 4278   0.062   4.322   4.696  2.4201 -1.2837 -0.0428
   14MOL    H93 4279   0.204   4.701   4.543  0.5337 -0.0555 -0.4447
   14MOL    H94 4280   0.229   4.603   4.325 -1.0355 -0.1715 -0.8823
   14MOL    H95 4281   0.122   4.398   4.263 -0.6712  0.2927  0.9850
   14MOL    H96 4282   8.294   4.233   4.441  1.0882 -0.4157  0.9976
   14MOL    H97 4283   8.360   4.211   4.271  2.6301  0.3370  0.3376
   14MOL    C98 4284   8.292   4.039   4.357 -0.8612 -0.3831  0.4268
   14MOL    C99 4285   8.297   3.971   4.497  0.1568 -0.1064 -0.0670
   14MOL   C100 4286   8.208   4.004   4.602  0.4713  0.5440  0.7155
   14MOL   C101 4287   8.225   3.944   4.727 -0.7207 -0.1094  0.5640
   14MOL  Cl102 4288   8.113   3.983   4.850 -0.1109  0.0102  0.2865
   14MOL   C103 4289   8.330   3.851   4.753  0.7660  0.6517  0.4712
   14MOL   C104 4290   8.411   3.807   4.649 -0.0016 -0.1645 -0.0106
   14MOL   C105 4291   8.393   3.868   4.520 -0.2846 -0.3606 -0.3249
   14MOL   C106 4292   8.161   4.059   4.284 -0.4244 -0.4697 -0.7207
   14MOL   H107 4293   8.352   3.978   4.290  1.1270  3.4139 -1.3778
   14MOL   H108 4294   8.140   4.084   4.579  0.3327  0.9783  2.5535
   14MOL   H109 4295   8.339   3.818   4.855  0.3587  0.2936  0.3951
   14MOL   H110 4296   0.041   3.721   4.650 -3.1070 -2.6670 -2.1095
   14MOL   H111 4297   0.031   3.840   4.446  0.2547  2.3175 -0.8477
   14MOL   H112 4298   8.082   4.104   4.343 -0.4345  0.5095 -1.4693
   14MOL   H113 4299   8.178   4.114   4.191 -0.4287  1.3567  0.3562
   14MOL   C114 4300   8.101   3.927   4.226 -0.2263 -0.0749 -0.5524
   14MOL   C115 4301   8.119   3.795   4.315  0.0402 -0.9825  0.4394
   14MOL   C116 4302   8.212   3.702   4.271 -0.2506 -0.1145  0.3733
   14MOL   C117 4303   8.239   3.586   4.339  0.2952  0.2329  0.7674
   14MOL  Cl118 4304   8.332   3.468   4.250  0.0009  0.0392 -0.3406
   14MOL   C119 4305   8.175   3.550   4.458  0.8685 -0.3619  0.2476
   14MOL   C120 4306   8.076   3.636   4.503 -0.1074 -0.6457  0.4080
   14MOL   C121 4307   8.048   3.757   4.433 -0.4689 -0.1656  0.1187
   14MOL   C122 4308   7.950   3.947   4.192  0.2517 -0.4528 -0.2671
   14MOL   H123 4309   8.157   3.913   4.133  1.4473  1.1087  0.2342
   14MOL   H124 4310   8.277   3.722   4.188  2.7163  0.1706  2.6690
   14MOL   H125 4311   8.195   3.454   4.504 -1.7945 -1.0838 -0.0222
   14MOL   H126 4312   8.016   3.619   4.591 -0.7992  2.6051  0.6353
   14MOL   H127 4313   7.978   3.828   4.476  1.6295  1.4893  0.8525
   14MOL   H128 4314   7.902   3.983   4.283  1.5820  0.0408  0.2493
   14MOL   H129 4315   7.935   4.025   4.118  1.2121 -1.7849 -1.8951
   14MOL   C130 4316   7.885   3.807   4.126  0.0951  0.3783  0.5612
   14MOL   C131 4317   7.731   3.819   4.122  0.1347  0.8047  0.2088
   14MOL   C132 4318   7.661   3.863   4.003  0.5367  0.5846  0.4434
   14MOL   C133 4319   7.520   3.872   4.006  0.5221 -0.7190 -0.1147
   14MOL  Cl134 4320   7.433   3.944   3.875 -0.1737 -0.0089 -0.0286
   14MOL   C135 4321   7.451   3.824   4.116  0.3218 -0.7139  0.4853
   14MOL   C136 4322   7.519   3.778   4.229 -0.2138  0.5085 -0.5057
   14MOL   C137 4323   7.656   3.779   4.237 -1.0278 -0.3558  0.5699
   14MOL   C138 4324   7.959   3.775   3.996 -0.0435  0.5410  0.2441
   14MOL   H139 4325   7.916   3.729   4.196  0.5396  0.2799  0.2601
   14MOL   H140 4326   7.721   3.901   3.922  0.1993  0.3955  0.1089
   14MOL   H141 4327   7.343   3.832   4.115  0.3541 -0.2113 -0.9957
   14MOL   H142 4328   7.457   3.741   4.310  0.9530  0.3548  0.3227
   14MOL   H143 4329   7.707   3.734   4.320  1.4327 -1.0889 -1.2955
   14MOL   H144 4330   7.963   3.860   3.927 -0.3550  0.5441  0.2260
   14MOL   H145 4331   8.064   3.759   4.017 -0.1402 -0.7797 -0.2539
   14MOL   C146 4332   7.908   3.645   3.925  0.0661 -0.2302  0.5932
   14MOL   C147 4333   7.909   3.669   3.774  0.0616  0.5487  0.0653
   14MOL   C148 4334   7.797   3.719   3.701 -0.5439  0.3829 -0.3420
   14MOL   C149 4335   7.804   3.726   3.561 -0.4663 -0.0249  0.0689
   14MOL  Cl150 4336   7.676   3.788   3.468  0.1599  0.3728  0.4051
   14MOL   C151 4337   7.919   3.686   3.490 -0.4154 -0.4301 -0.4032
   14MOL   C152 4338   8.030   3.640   3.558  0.3307  0.4058  0.2463
   14MOL   C153 4339   8.027   3.635   3.700 -0.0661 -0.0663 -0.5281
   14MOL   C154 4340   7.981   3.511   3.972 -0.3939 -0.6831  0.2754
   14MOL   H155 4341   7.801   3.633   3.943 -0.7610  1.7522 -2.6467
   14MOL   H156 4342   7.707   3.747   3.755 -1.6016  0.8213 -2.2701
   14MOL   H157 4343   7.922   3.693   3.382  0.5583  1.8245 -0.2636
   14MOL   H158 4344   8.126   3.615   3.515  0.5085 -2.4562  2.1528
   14MOL   H159 4345   8.116   3.603   3.751  0.7963  0.1572 -1.8737
   14MOL   H160 4346   7.962   3.451   3.883  0.1714  2.0081 -1.7082
   14MOL   H161 4347   8.088   3.528   3.976 -0.4297  0.4148 -2.3892
   14MOL   C162 4348   7.927   3.435   4.100  0.0788 -0.7672  0.8848
   14MOL   C163 4349   7.778   3.395   4.096 -0.6988 -0.0922 -0.2666
   14MOL   C164 4350   7.693   3.432   4.199 -0.2406 -1.0569 -0.0809
   14MOL   C165 4351   7.556   3.407   4.204  0.0068  0.3862  0.7585
   14MOL  Cl166 4352   7.462   3.450   4.340 -0.0768  0.2548 -0.1031
   14MOL   C167 4353   7.500   3.341   4.092 -0.3683  0.7902 -0.0797
   14MOL   C168 4354   7.583   3.298   3.988 -0.2903 -0.0821 -0.4295
   14MOL   C169 4355   7.719   3.335   3.985  0.1026  0.1800 -0.3026
   14MOL   C170 4356   8.017   3.311   4.122  0.4078 -0.2416 -0.7298
   14MOL   H171 4357   7.947   3.502   4.183  0.0140 -0.9390  1.0375
   14MOL   H172 4358   7.717   3.485   4.290 -1.4830  0.5299 -0.6670
   14MOL   H173 4359   7.396   3.312   4.085  0.2715 -1.8720  1.0203
   14MOL   H174 4360   7.541   3.246   3.904 -0.9973  0.5073 -0.4398
   14MOL   H175 4361   7.776   3.307   3.899  0.3510 -0.1090 -0.0440
   14MOL   H176 4362   7.984   3.237   4.049  0.9928  0.5701 -1.8321
   14MOL   H177 4363   8.120   3.329   4.093  0.4548 -0.1290 -0.4937
   14MOL   C178 4364   8.020   3.248   4.264  1.2134 -0.3549  0.4319
   14MOL   C179 4365   7.877   3.207   4.310  0.3103 -0.8770 -0.1816
   14MOL   C180 4366   7.822   3.268   4.424  0.2608 -0.4164  0.2299
   14MOL   C181 4367   7.697   3.237   4.476  0.9247  0.0221 -0.0640
   14MOL  Cl182 4368   7.643   3.297   4.632 -0.0760 -0.4275 -0.1412
   14MOL   C183 4369   7.614   3.151   4.402  0.4861 -0.4723 -0.3311
   14MOL   C184 4370   7.665   3.082   4.288 -0.3444  0.9246 -0.5248
   14MOL   C185 4371   7.792   3.113   4.234 -0.4833 -0.8043  0.3190
   14MOL   C186 4372   8.123   3.128   4.268 -0.4162  0.1869  0.9393
   14MOL   H187 4373   8.059   3.328   4.327 -0.7572  0.7323  0.3180
   14MOL   H188 4374   7.890   3.321   4.490  0.4338 -1.6961  1.0815
   14MOL   H189 4375   7.513   3.133   4.436  0.1090  1.3045 -0.4560
   14MOL   H190 4376   7.594   3.011   4.248  0.0540 -0.2970  0.8680
   14MOL   H191 4377   7.827   3.074   4.140  0.5293 -0.9379  0.7443
   14MOL   H192 4378   8.077   3.035   4.235 -0.4498  0.5005  0.0914
   14MOL   H193 4379   8.194   3.148   4.188 -0.3089  0.1017  1.0144
   14MOL   C194 4380   8.199   3.124   4.401  0.0573 -0.9049  0.2136
   14MOL   C195 4381   8.114   3.089   4.526  0.6217  0.6785 -0.0986
   14MOL   C196 4382   8.032   2.971   4.521 -0.0896  0.2944  0.4267
   14MOL   C197 4383   7.944   2.943   4.632 -0.8072 -0.9693 -0.1317
   14MOL  Cl198 4384   7.829   2.812   4.633 -0.2528 -0.2313  0.1732
   14MOL   C199 4385   7.952   3.024   4.751 -0.5950  0.4529  0.5269
   14MOL   C200 4386   8.018   3.148   4.750 -0.2523 -0.6646  0.1376
   14MOL   C201 4387   8.099   3.179   4.634 -0.0780  0.2900  0.1384
   14MOL   C202 4388   8.331   3.048   4.394  0.1238  0.8585 -1.0636
   14MOL   H203 4389   8.231   3.227   4.410  1.1329 -1.1090 -1.1604
   14MOL   H204 4390   8.024   2.911   4.431 -1.9204  3.9959 -2.0124
   14MOL   H205 4391   7.887   2.995   4.832  0.1466 -0.1905  0.9015
   14MOL   H206 4392   8.009   3.224   4.826  1.8142  0.5110 -0.7624
   14MOL   H207 4393   8.149   3.275   4.630  0.7500 -0.1093  0.8364
   14MOL   H208 4394   8.349   2.980   4.478 -0.7330  0.2602 -1.3662
   14MOL   H209 4395   8.338   2.987   4.304  3.2690 -0.1686 -0.1981
   14MOL   C210 4396   0.019   3.134   4.388  0.2266 -0.5083  0.6684
   14MOL   C211 4397   0.062   3.192   4.527  0.2909  0.4563  0.3609
   14MOL   C212 4398   0.117   3.107   4.626  0.4394 -0.7194  0.2571
   14MOL   C213 4399   0.138   3.153   4.758 -0.2347  0.8497  0.2149
   14MOL  Cl214 4400   0.185   3.043   4.890 -0.1328  0.3489 -0.0398
   14MOL   C215 4401   0.109   3.287   4.785  0.4495  0.0568 -0.4534
   14MOL   C216 4402   0.053   3.369   4.690 -1.2676  0.4168 -0.1464
   14MOL   C217 4403   0.040   3.325   4.559 -0.0072  0.5051  0.4978
   14MOL   C218 4404   0.145   3.063   4.329  0.1938 -0.0561 -0.5253
   14MOL   H219 4405   0.000   3.227   4.333 -1.6587 -0.2391  1.7174
   14MOL   H220 4406   0.132   3.003   4.604  2.1328 -0.3491 -0.4200
   14MOL   H221 4407   0.108   3.318   4.888  0.4065 -0.8199 -0.1905
   14MOL   H222 4408   0.036   3.473   4.711 -0.2237  0.6637 -0.5181
   14MOL   H223 4409   0.006   3.393   4.483  0.2322 -1.1743 -1.1590
   14MOL   H224 4410   0.227   3.125   4.364  0.5322 -0.7167 -0.1434
   14MOL   H225 4411   0.159   2.967   4.379  0.7827  0.0357 -0.5121
   14MOL   C226 4412   0.155   3.055   4.174 -0.5372 -0.7093  0.6043
   14MOL   C227 4413   0.126   3.180   4.094 -0.3208  0.0267  0.2135
   14MOL   C228 4414   0.008   3.188   4.015  0.0379 -0.4283 -0.3535
   14MOL   C229 4415   8.421   3.295   3.928 -0.0713 -0.3961  0.4838
   14MOL  Cl230 4416   8.288   3.307   3.817 -0.3553 -0.1451 -0.2613
   14MOL   C231 4417   0.081   3.401   3.921 -0.7884  0.2350 -0.1175
   14MOL   C232 4418   0.195   3.399   4.002 -0.0604  0.1020 -0.8184
   14MOL   C233 4419   0.218   3.285   4.086  0.6669  0.2237 -0.1365
   14MOL   C234 4420   0.293   2.991   4.135 -0.1877  0.1302 -0.3464
   14MOL   H235 4421   0.072   2.990   4.150 -0.5661 -0.3554 -0.3034
   14MOL   H236 4422   8.375   3.105   4.021 -0.1130 -0.1952  1.3850
   14MOL   H237 4423   0.054   3.477   3.849 -0.2671  1.0726  0.5615
   14MOL   H238 4424   0.256   3.488   4.014 -1.1768  0.4918  2.3873
   14MOL   H239 4425   0.304   3.300   4.149 -1.4333  2.6550  2.2700
   14MOL   H240 4426   0.366   3.071   4.129 -1.9642  2.1513  3.1638
   14MOL   H241 4427   0.329   2.937   4.222 -1.1241 -0.5050 -0.3422
   14MOL   C242 4428   0.294   2.894   4.016 -0.0342 -0.2179  0.0011
   14MOL   C243 4429   0.311   2.968   3.884  0.4018  0.3039 -0.2991
   14MOL   C244 4430   0.194   3.002   3.811  0.7611 -0.6998 -0.8771
   14MOL   C245 4431   0.210   3.091   3.705 -0.2385 -0.6440  0.6524
   14MOL  Cl246 4432   0.076   3.130   3.611 -0.3801 -0.0989  0.2695
   14MOL   C247 4433   0.335   3.146   3.664 -0.5425  0.0130  0.4743
   14MOL   C248 4434   0.448   3.103   3.726 -0.0722  0.1960 -0.1874
   14MOL   C249 4435   0.434   3.018   3.843  0.0151 -0.1221  0.2510
   14MOL   C250 4436   0.414   2.798   4.042 -0.1207  0.5270  0.2001
   14MOL   H251 4437   0.197   2.844   4.014 -1.4002  2.3445 -0.7458
   14MOL   H252 4438   0.101   2.989   3.864  0.6700  0.2508 -0.7780
   14MOL   H253 4439   0.327   3.211   3.579  0.4599  1.0081  1.1274
   14MOL   H254 4440   0.547   3.117   3.686  0.0294 -0.7186 -0.2687
   14MOL   H255 4441   0.521   2.993   3.903 -1.5990  0.6268  3.0152
   14MOL   H256 4442   0.425   2.755   3.942 -0.3376  1.1018 -0.0730
   14MOL   H257 4443   0.503   2.857   4.063 -0.4781  0.7671  1.0628
   14MOL   C258 4444   0.402   2.688   4.154 -0.2227  0.9083 -0.2217
   14MOL   C259 4445   0.277   2.601   4.133  0.1476 -0.2406  0.1877
   14MOL   C260 4446   0.260   2.532   4.010 -0.0877  0.2678  0.4758
   14MOL   C261 4447   0.154   2.439   3.990 -0.0132  0.6184 -0.1063
   14MOL  Cl262 4448   0.135   2.360   3.834 -0.4409 -0.2409  0.0609
   14MOL   C263 4449   0.074   2.419   4.101  0.1709  0.0160 -0.2340
   14MOL   C264 4450   0.085   2.492   4.220 -0.5917  0.2835 -0.0369
   14MOL   C265 4451   0.187   2.592   4.232  0.4977 -0.0902 -0.0474
   14MOL   C266 4452   0.534   2.602   4.179 -0.5750 -0.5194  0.0824
   14MOL   H267 4453   0.387   2.745   4.245  0.2386  3.0746 -1.4830
   14MOL   H268 4454   0.332   2.541   3.929 -0.4441 -2.2219 -0.1524
   14MOL   H269 4455   8.434   2.342   4.088  1.2270 -1.0212 -0.2794
   14MOL   H270 4456   0.018   2.470   4.302 -0.4793  1.1822  0.3049
   14MOL   H271 4457   0.203   2.645   4.325  2.7305  0.7627 -0.8777
   14MOL   H272 4458   0.611   2.676   4.202 -2.0011  0.9605  0.1420
   14MOL   H273 4459   0.521   2.544   4.271 -0.1807  0.7498  0.9512
   14MOL   C274 4460   0.582   2.507   4.067  0.0270  0.0164 -0.6495
   14MOL   C275 4461   0.637   2.575   3.945 -0.2693 -0.0114  0.6837
   14MOL   C276 4462   0.745   2.668   3.950  0.5451 -0.0570 -0.0581
   14MOL   C277 4463   0.795   2.716   3.828 -0.0374  0.1584 -0.8342
   14MOL  Cl278 4464   0.928   2.833   3.835 -0.0383 -0.4734 -0.0064
   14MOL   C279 4465   0.740   2.669   3.706  0.0014 -0.5837  0.3596
   14MOL   C280 4466   0.642   2.568   3.703  0.1558 -0.6325 -0.5004
   14MOL   C281 4467   0.590   2.523   3.822  0.4669  0.0414 -0.2663
   14MOL   C282 4468   0.693   2.410   4.105  0.0491 -0.3388  0.0306
   14MOL   H283 4469   0.495   2.448   4.036 -0.0703  0.6403 -1.5814
   14MOL   H284 4470   0.777   2.703   4.046 -1.5138 -0.3325  0.7539
   14MOL   H285 4471   0.782   2.707   3.613  2.2645 -1.6402  0.9117
   14MOL   H286 4472   0.615   2.531   3.605  0.8838  1.2454 -1.4388
   14MOL   H287 4473   0.507   2.454   3.826 -1.0830  1.8700 -0.0428
   14MOL   H288 4474   0.734   2.371   4.012 -2.6358 -1.2668 -0.8188
   14MOL   H289 4475   0.779   2.454   4.155  0.1408 -0.9142  0.3910
   14MOL   C290 4476   0.650   2.292   4.203  0.4779  0.5075  0.2434
   14MOL   C291 4477   0.542   2.205   4.136  0.4522  0.2756 -0.3295
   14MOL   C292 4478   0.424   2.188   4.197  0.5861 -0.5474  0.0940
   14MOL   C293 4479   0.314   2.142   4.126  0.0815  0.6510 -0.3555
   14MOL  Cl294 4480   0.158   2.106   4.195  0.2710  0.1014  0.3017
   14MOL   C295 4481   0.335   2.096   3.993 -0.0128  0.1878  0.1635
   14MOL   C296 4482   0.461   2.101   3.934  0.5182 -0.1187  0.5939
   14MOL   C297 4483   0.566   2.156   4.009  0.4643 -0.4592  0.6272
   14MOL   C298 4484   0.770   2.207   4.242  0.3828  0.6272  0.6012
   14MOL   H299 4485   0.600   2.330   4.292 -1.1930 -0.2931 -0.3344
   14MOL   H300 4486   0.402   2.229   4.295  1.9665 -0.6264  0.4362
   14MOL   H301 4487   0.245   2.063   3.943 -0.6098 -0.1786  1.4425
   14MOL   H302 4488   0.473   2.060   3.835  3.2987 -0.9238  1.2327
   14MOL   H303 4489   0.668   2.154   3.975 -0.0442 -0.4280 -0.9417
   14MOL   H304 4490   0.830   2.181   4.155  0.3659  1.4616  0.3392
   14MOL   H305 4491   0.839   2.265   4.304 -0.1002  2.0035 -0.1328
   14MOL   C306 4492   0.733   2.070   4.314 -0.2339 -0.0158 -0.0912
   14MOL   C307 4493   0.855   1.980   4.313 -0.1834  0.1142  0.5408
   14MOL   C308 4494   0.823   1.848   4.300  0.2385 -0.5315  0.5121
   14MOL   C309 4495   0.924   1.755   4.305  0.1384  0.0895 -0.5814
   14MOL  Cl310 4496   0.887   1.588   4.301 -0.1979  0.0347 -0.0654
   14MOL   C311 4497   1.060   1.790   4.308 -0.0435  0.1004 -0.2567
   14MOL   C312 4498   1.083   1.927   4.324 -0.1984 -1.1820 -0.1163
   14MOL   C313 4499   0.986   2.027   4.329  0.5553 -0.0283  0.2096
   14MOL   C314 4500   0.676   2.090   4.461 -0.5805  0.1468 -0.5071
   14MOL   H315 4501   0.650   2.017   4.268 -0.1232  1.0650 -1.5488
   14MOL   H316 4502   0.721   1.813   4.288  0.6983 -0.8656 -2.9714
   14MOL   H317 4503   1.133   1.710   4.312  0.7095  0.8403  1.3221
   14MOL   H318 4504   1.182   1.970   4.330 -1.2323  1.0442  2.2514
   14MOL   H319 4505   1.004   2.132   4.344 -1.2564  0.1513  1.3751
   14MOL   H320 4506   0.614   2.005   4.489  0.3616 -0.2576  0.4024
   14MOL   H321 4507   0.749   2.103   4.540 -0.7720 -0.5067 -0.2236
   14MOL   H322 4508   0.597   2.165   4.457  0.2425  1.0518 -0.0471
   15MOL     C1 4509   3.581   2.940   5.151  0.6357 -0.3879  0.2456
   15MOL     C2 4510   3.586   2.870   5.020 -0.3531  0.1918 -0.1342
   15MOL     C3 4511   3.654   2.932   4.913  0.4563 -0.0762 -0.7454
   15MOL     C4 4512   3.677   2.855   4.796 -0.1092  0.0910  0.2850
   15MOL    Cl5 4513   3.783   2.925   4.676  0.1398  0.2136  0.1543
   15MOL     C6 4514   3.634   2.723   4.788 -0.3630 -0.0588  0.3136
   15MOL     C7 4515   3.566   2.668   4.892 -0.0556 -0.4073 -0.0795
   15MOL     C8 4516   3.532   2.741   5.008 -0.1720 -0.0925 -0.2457
   15MOL     C9 4517   3.636   2.872   5.272 -0.6272 -1.0729 -0.0960
   15MOL    H10 4518   3.479   2.975   5.164  1.1119  1.2160 -0.2850
   15MOL    H11 4519   3.714   3.020   4.931  0.6753  0.0481 -2.0398
   15MOL    H12 4520   3.674   2.645   4.725 -3.5124 -0.4406 -1.3334
   15MOL    H13 4521   3.544   2.562   4.886  0.6324 -0.6510  1.5815
   15MOL    H14 4522   3.482   2.696   5.092  0.8870 -1.1516 -0.1696
   15MOL    H15 4523   3.564   2.809   5.324 -1.5159 -0.5869 -0.7342
   15MOL    H16 4524   3.717   2.803   5.245  1.1553  1.3270 -1.1197
   15MOL    H17 4525   3.631   3.036   5.141  0.8815 -0.1769  3.0713
   15MOL    C18 4526   3.723   2.970   5.357  0.4931 -0.2291 -0.8061
   15MOL    C19 4527   3.651   3.106   5.379 -0.5237 -0.3749  0.6574
   15MOL    C20 4528   3.726   3.224   5.395 -0.3485 -0.0054  0.0624
   15MOL    C21 4529   3.671   3.345   5.439  0.0054 -0.2219  0.3589
   15MOL   Cl22 4530   3.775   3.481   5.452 -0.1183 -0.0535 -0.1246
   15MOL    C23 4531   3.530   3.360   5.453  0.6187 -0.6939  0.3745
   15MOL    C24 4532   3.456   3.246   5.435  0.4101  0.8851  0.2174
   15MOL    C25 4533   3.510   3.116   5.398 -0.6730 -0.2729  0.3115
   15MOL    C26 4534   3.755   2.900   5.492 -0.1740 -0.1917 -0.2951
   15MOL    H27 4535   3.820   2.978   5.307 -0.5116  2.5760 -2.4686
   15MOL    H28 4536   3.833   3.228   5.376 -0.6430  1.5174 -1.3351
   15MOL    H29 4537   3.494   3.459   5.478  2.1860  0.2254 -0.9307
   15MOL    H30 4538   3.350   3.250   5.458  0.0820 -1.3919 -0.7008
   15MOL    H31 4539   3.448   3.029   5.384 -1.0031  0.0440 -0.2326
   15MOL    H32 4540   3.658   2.869   5.531 -0.4105  0.8515 -0.0460
   15MOL    H33 4541   3.791   2.800   5.467  0.6329 -0.1783  0.7926
   15MOL    C34 4542   3.843   2.977   5.600 -0.0531 -0.2518 -0.1212
   15MOL    C35 4543   3.813   2.932   5.747  0.2744 -0.1714 -0.0391
   15MOL    C36 4544   3.799   2.792   5.779  0.9220 -0.0041  0.2583
   15MOL    C37 4545   3.767   2.759   5.916  0.5086  0.2666 -0.2923
   15MOL   Cl38 4546   3.768   2.596   5.964 -0.5637  0.1848  0.3742
   15MOL    C39 4547   3.748   2.860   6.013 -0.0160 -0.8156 -0.1309
   15MOL    C40 4548   3.755   2.994   5.980  0.3871 -0.4366 -0.0696
   15MOL    C41 4549   3.799   3.028   5.849 -0.2923 -0.4631  0.1286
   15MOL    C42 4550   3.996   2.963   5.577  0.2416 -0.0182  0.5225
   15MOL    H43 4551   3.814   3.082   5.597 -0.6320 -0.3247  1.8085
   15MOL    H44 4552   3.805   2.723   5.696  0.6250  1.8411 -1.3212
   15MOL    H45 4553   3.719   2.833   6.114  2.6992  0.1861  0.9693
   15MOL    H46 4554   3.719   3.071   6.047 -2.2445  0.1435 -2.0211
   15MOL    H47 4555   3.804   3.133   5.826 -4.2612 -0.5508 -1.5378
   15MOL    H48 4556   4.042   2.953   5.675  0.7946 -0.4647  0.2175
   15MOL    H49 4557   4.007   2.858   5.550  0.9283  0.8008 -2.6255
   15MOL    C50 4558   4.071   3.062   5.482  0.6296 -0.2055 -0.3998
   15MOL    C51 4559   4.067   3.210   5.519 -0.6827  0.0246  0.6375
   15MOL    C52 4560   4.063   3.252   5.654 -0.1483 -0.6471 -0.2109
   15MOL    C53 4561   4.083   3.389   5.692  0.2938  0.0355  0.1449
   15MOL   Cl54 4562   4.098   3.435   5.856 -0.3737  0.0643 -0.2763
   15MOL    C55 4563   4.097   3.481   5.582  0.0233 -0.4933 -0.0128
   15MOL    C56 4564   4.097   3.443   5.446 -0.0941  0.0560 -0.1584
   15MOL    C57 4565   4.083   3.303   5.414  0.4569  0.1926 -0.4587
   15MOL    C58 4566   4.221   3.025   5.467  0.1950 -0.2091 -0.8338
   15MOL    H59 4567   4.014   3.051   5.390 -0.9221 -1.4702  0.6732
   15MOL    H60 4568   4.070   3.173   5.728 -1.5478  0.1876  0.8310
   15MOL    H61 4569   4.125   3.582   5.609 -0.0253 -0.7413  1.0116
   15MOL    H62 4570   4.123   3.507   5.363 -0.5144  3.2654  2.1088
   15MOL    H63 4571   4.100   3.270   5.312  1.0024  0.7336 -0.5480
   15MOL    H64 4572   4.273   3.101   5.408  1.0683  1.7580  2.3434
   15MOL    H65 4573   4.266   3.040   5.566  0.0830  1.2097 -0.9881
   15MOL    C66 4574   4.244   2.886   5.405 -0.8052 -0.4012 -0.0416
   15MOL    C67 4575   4.179   2.874   5.259 -0.3099 -0.2512  0.0731
   15MOL    C68 4576   4.066   2.792   5.242 -0.3094 -0.2569 -0.1081
   15MOL    C69 4577   3.991   2.803   5.122  0.1423  0.3538 -1.0441
   15MOL   Cl70 4578   3.866   2.689   5.085 -0.3183 -0.0808  0.2277
   15MOL    C71 4579   4.026   2.903   5.026 -0.0350  0.2358  0.3961
   15MOL    C72 4580   4.145   2.969   5.042 -0.5283 -0.3518  0.3066
   15MOL    C73 4581   4.221   2.953   5.155  0.6563 -0.2038 -0.3107
   15MOL    C74 4582   4.395   2.850   5.387  0.2276 -0.0432 -0.2719
   15MOL    H75 4583   4.204   2.815   5.477 -3.5670  1.8387  0.7493
   15MOL    H76 4584   4.033   2.716   5.311 -1.8907 -2.0107 -2.6658
   15MOL    H77 4585   3.978   2.922   4.931 -2.5580  1.3400  1.8378
   15MOL    H78 4586   4.170   3.022   4.952  0.4895 -2.4023 -0.6452
   15MOL    H79 4587   4.303   3.022   5.159 -0.3922  1.0027  0.8437
   15MOL    H80 4588   4.445   2.937   5.343  0.9601  2.0889  4.4647
   15MOL    H81 4589   4.447   2.852   5.483  1.6760  0.8396 -1.0461
   15MOL    C82 4590   4.424   2.715   5.323  0.0431  0.9304  0.3962
   15MOL    C83 4591   4.477   2.731   5.178  0.1612 -0.1879  0.1660
   15MOL    C84 4592   4.591   2.814   5.159 -0.2914 -0.0774 -0.1907
   15MOL    C85 4593   4.633   2.845   5.028  0.0413 -0.1992 -0.4949
   15MOL   Cl86 4594   4.773   2.947   5.007 -0.1749 -0.0850  0.4255
   15MOL    C87 4595   4.562   2.793   4.920 -0.1744 -0.0776 -0.2296
   15MOL    C88 4596   4.447   2.707   4.936  0.1348 -0.0940  0.1307
   15MOL    C89 4597   4.408   2.670   5.068  0.1274 -0.1512  0.5467
   15MOL    C90 4598   4.510   2.609   5.407 -0.0170 -0.2691 -0.0952
   15MOL    H91 4599   4.336   2.653   5.303  1.8270 -0.4348 -3.8118
   15MOL    H92 4600   4.639   2.854   5.247 -0.8227 -0.7590  0.4213
   15MOL    H93 4601   4.596   2.814   4.819 -1.4827  0.2393 -0.6227
   15MOL    H94 4602   4.402   2.664   4.848  1.5919  2.2672 -1.8059
   15MOL    H95 4603   4.320   2.607   5.070 -0.9657  1.3234  0.0776
   15MOL    H96 4604   4.604   2.657   5.431  0.4072 -1.1160 -0.0560
   15MOL    H97 4605   4.463   2.587   5.503  0.4621  0.8058  0.3936
   15MOL    C98 4606   4.532   2.476   5.330 -0.2351  0.2880  0.4548
   15MOL    C99 4607   4.651   2.402   5.386 -0.0043  0.9093 -0.1524
   15MOL   C100 4608   4.662   2.366   5.516  0.9379  0.1882 -0.2871
   15MOL   C101 4609   4.776   2.295   5.565  0.0258 -0.5581 -0.1366
   15MOL  Cl102 4610   4.794   2.242   5.723  0.2598  0.0479 -0.1091
   15MOL   C103 4611   4.873   2.248   5.474  0.6611 -0.4383 -0.2637
   15MOL   C104 4612   4.864   2.283   5.336 -0.0033  0.2490  0.6529
   15MOL   C105 4613   4.754   2.358   5.298  0.2406  0.1964 -0.0889
   15MOL   C106 4614   4.405   2.385   5.333  0.6236 -0.0978  0.3066
   15MOL   H107 4615   4.545   2.501   5.225 -1.1432  0.6953  0.4366
   15MOL   H108 4616   4.588   2.386   5.592  3.4964 -0.5713  2.5004
   15MOL   H109 4617   4.947   2.178   5.510  1.3040  1.1170  1.4678
   15MOL   H110 4618   4.934   2.248   5.262  0.7561  1.2469  0.8813
   15MOL   H111 4619   4.742   2.395   5.197  2.3063 -0.8578 -0.7456
   15MOL   H112 4620   4.385   2.342   5.431 -1.0480  1.0145  0.4740
   15MOL   H113 4621   4.316   2.442   5.308  0.1071 -1.0111  0.0628
   15MOL   C114 4622   4.415   2.266   5.231 -0.2361  0.0972  0.1757
   15MOL   C115 4623   4.301   2.175   5.258  0.0075  0.3406 -0.9953
   15MOL   C116 4624   4.169   2.220   5.233 -0.4551 -0.4295  0.5578
   15MOL   C117 4625   4.066   2.130   5.247 -0.2561 -0.0716 -0.0385
   15MOL  Cl118 4626   3.910   2.171   5.202 -0.5799 -0.1729 -0.1665
   15MOL   C119 4627   4.092   2.009   5.312 -0.4312 -0.3258  0.1820
   15MOL   C120 4628   4.221   1.969   5.352 -0.0083  0.4390  0.3236
   15MOL   C121 4629   4.327   2.052   5.322  0.2805 -0.1419  0.1607
   15MOL   C122 4630   4.421   2.309   5.078  0.7609 -0.4629 -0.0741
   15MOL   H123 4631   4.504   2.208   5.258  1.4985  2.1479 -0.9361
   15MOL   H124 4632   4.146   2.314   5.185  0.5643 -0.5753 -0.2350
   15MOL   H125 4633   4.014   1.939   5.339  0.7937 -1.1487  1.6650
   15MOL   H126 4634   4.236   1.868   5.385 -0.8913 -1.0516 -3.5668
   15MOL   H127 4635   4.428   2.021   5.348 -0.1487  0.2446  2.4199
   15MOL   H128 4636   4.352   2.391   5.055  1.3370 -0.3120 -1.3270
   15MOL   H129 4637   4.519   2.354   5.061  1.2818 -1.2315  0.8042
   15MOL   C130 4638   4.407   2.200   4.971 -0.5496  0.4318  0.1614
   15MOL   C131 4639   4.375   2.269   4.845 -1.0737  0.4117 -0.4441
   15MOL   C132 4640   4.461   2.369   4.794 -0.3595 -0.2979  0.1309
   15MOL   C133 4641   4.429   2.439   4.672  0.3587  1.0470 -0.4787
   15MOL  Cl134 4642   4.545   2.551   4.604  0.2628 -0.0793 -0.2990
   15MOL   C135 4643   4.317   2.399   4.601 -0.3009 -0.2998  0.3993
   15MOL   C136 4644   4.244   2.290   4.644 -0.5601  0.6492 -0.4905
   15MOL   C137 4645   4.265   2.227   4.767  0.0700 -0.5062  0.0813
   15MOL   C138 4646   4.535   2.117   4.958 -0.6780  0.4134  0.0907
   15MOL   H139 4647   4.331   2.125   4.993  1.4169 -2.1835 -1.7139
   15MOL   H140 4648   4.543   2.401   4.855 -0.5096 -0.6764  0.5369
   15MOL   H141 4649   4.289   2.444   4.506 -1.9156 -1.0191  0.5099
   15MOL   H142 4650   4.166   2.260   4.576 -0.3844  0.3633 -0.5695
   15MOL   H143 4651   4.206   2.141   4.795  1.2559 -1.7293 -1.1031
   15MOL   H144 4652   4.607   2.193   4.925 -1.5469  0.6703 -1.2420
   15MOL   H145 4653   4.552   2.090   5.062 -0.7607  0.3829  0.0961
   15MOL   C146 4654   4.543   2.013   4.849 -0.3951  0.4284  0.2300
   15MOL   C147 4655   4.689   1.962   4.845  0.1634  0.3616  1.2037
   15MOL   C148 4656   4.754   1.943   4.723  0.4594  0.7477 -0.2329
   15MOL   C149 4657   4.886   1.881   4.719 -0.2602 -0.7600  0.1481
   15MOL  Cl150 4658   4.966   1.849   4.565 -0.1784 -0.2522  0.6829
   15MOL   C151 4659   4.950   1.849   4.841  0.3187  0.2721 -0.8680
   15MOL   C152 4660   4.889   1.879   4.961  0.2865  0.8949  0.5225
   15MOL   C153 4661   4.758   1.928   4.967  0.3002  0.0882  0.3536
   15MOL   C154 4662   4.441   1.893   4.875 -0.3896 -0.3195  0.1044
   15MOL   H155 4663   4.516   2.062   4.755  1.4605  0.4608 -0.3152
   15MOL   H156 4664   4.690   1.967   4.640 -1.7255 -1.3030  0.8107
   15MOL   H157 4665   5.047   1.802   4.829 -0.6573 -2.1259  0.2779
   15MOL   H158 4666   4.937   1.864   5.056 -0.3611  0.7674  0.8313
   15MOL   H159 4667   4.709   1.948   5.061  0.2444  0.0727  0.3271
   15MOL   H160 4668   4.454   1.851   4.974 -1.9873 -0.8247  0.1140
   15MOL   H161 4669   4.337   1.926   4.879 -0.2067  0.0019  3.1283
   15MOL   C162 4670   4.444   1.781   4.765 -0.5197 -0.6240  0.2365
   15MOL   C163 4671   4.417   1.640   4.826  0.4484  0.1152  0.2107
   15MOL   C164 4672   4.520   1.545   4.809 -0.2910 -0.1043  0.0263
   15MOL   C165 4673   4.500   1.415   4.860 -0.2178  0.3777 -0.1344
   15MOL  Cl166 4674   4.624   1.302   4.835 -0.3399  0.6574 -0.1529
   15MOL   C167 4675   4.377   1.375   4.922  0.0017 -0.0095  0.4414
   15MOL   C168 4676   4.279   1.468   4.937 -0.3581 -0.4193  0.5741
   15MOL   C169 4677   4.297   1.602   4.889  0.1841  0.4428 -0.2923
   15MOL   C170 4678   4.359   1.821   4.649 -0.2324  0.5396  0.0397
   15MOL   H171 4679   4.547   1.770   4.732 -0.7085  1.8842 -1.2796
   15MOL   H172 4680   4.600   1.573   4.742 -0.2964  0.8993  0.4302
   15MOL   H173 4681   4.367   1.271   4.946 -0.4582 -0.5666 -2.0870
   15MOL   H174 4682   4.187   1.449   4.989 -1.5895 -0.1384 -1.4673
   15MOL   H175 4683   4.216   1.672   4.905 -2.0187 -1.7703 -1.4855
   15MOL   H176 4684   4.252   1.837   4.660 -0.5953 -0.0225 -2.4431
   15MOL   H177 4685   4.395   1.919   4.617  0.4108  0.2498 -0.1416
   15MOL   C178 4686   4.374   1.724   4.532 -0.4452 -0.5560  0.0241
   15MOL   C179 4687   4.242   1.696   4.467  0.1200 -0.4737 -0.3568
   15MOL   C180 4688   4.204   1.764   4.345 -0.0170 -0.9705 -0.1766
   15MOL   C181 4689   4.079   1.733   4.285  0.2746  0.0760  0.1903
   15MOL  Cl182 4690   4.028   1.813   4.142  0.2621  0.2779 -0.1747
   15MOL   C183 4691   3.989   1.631   4.339  0.5625  0.1135 -0.6458
   15MOL   C184 4692   4.024   1.573   4.463 -0.2657 -0.1304  0.2554
   15MOL   C185 4693   4.147   1.609   4.526 -0.1707 -0.4234 -0.3318
   15MOL   C186 4694   4.499   1.752   4.446 -0.8169  0.3359  0.3203
   15MOL   H187 4695   4.403   1.627   4.572  0.5892  0.1912  1.1160
   15MOL   H188 4696   4.259   1.836   4.287 -0.7873  0.6435  1.0822
   15MOL   H189 4697   3.892   1.616   4.294 -0.2011  1.3739  0.5926
   15MOL   H190 4698   3.943   1.516   4.506 -0.7132  0.0230 -0.3676
   15MOL   H191 4699   4.170   1.561   4.619 -1.9681  0.3743  0.5472
   15MOL   H192 4700   4.513   1.837   4.379 -1.1805  0.0273 -0.1480
   15MOL   H193 4701   4.567   1.788   4.524  0.2638 -3.2398  1.1251
   15MOL   C194 4702   4.547   1.627   4.376 -0.6149 -0.4623  0.7131
   15MOL   C195 4703   4.491   1.624   4.234 -0.0625 -0.1726  0.1856
   15MOL   C196 4704   4.382   1.539   4.207  0.1132  0.0097  0.0448
   15MOL   C197 4705   4.305   1.541   4.091  0.3064 -0.0932 -0.4747
   15MOL  Cl198 4706   4.160   1.455   4.087  0.1794 -0.0654 -0.0619
   15MOL   C199 4707   4.343   1.632   3.994 -0.0551  0.4270  0.3732
   15MOL   C200 4708   4.452   1.721   4.012 -0.2317  0.1941  0.4416
   15MOL   C201 4709   4.530   1.708   4.132 -0.6454  0.0426 -0.0874
   15MOL   C202 4710   4.708   1.612   4.378  0.0511  0.4530  0.0680
   15MOL   H203 4711   4.505   1.537   4.423  0.8480 -1.1247  0.8008
   15MOL   H204 4712   4.362   1.461   4.279  0.3623 -1.6568 -1.6601
   15MOL   H205 4713   4.272   1.652   3.915  0.0123  0.5567  0.3449
   15MOL   H206 4714   4.474   1.796   3.937  0.9854  0.8579  1.4503
   15MOL   H207 4715   4.620   1.767   4.145 -0.1240 -0.6585 -0.4938
   15MOL   H208 4716   4.759   1.696   4.332  1.1959  0.5222  1.4579
   15MOL   H209 4717   4.737   1.612   4.483  2.6124  2.3090 -0.5941
   15MOL   C210 4718   4.764   1.482   4.311  0.2474 -0.2236  0.2791
   15MOL   C211 4719   4.920   1.489   4.305  0.3298 -0.0507  0.0907
   15MOL   C212 4720   4.990   1.474   4.431 -0.2753  0.4879  0.7817
   15MOL   C213 4721   5.130   1.468   4.426  0.3881 -0.2035  0.0263
   15MOL  Cl214 4722   5.207   1.465   4.577  0.1716 -0.3630 -0.1211
   15MOL   C215 4723   5.199   1.484   4.304  0.0850 -0.6941 -0.2808
   15MOL   C216 4724   5.125   1.500   4.180 -0.2252 -0.0363 -0.1621
   15MOL   C217 4725   4.987   1.511   4.184  0.0213  0.9247 -0.1021
   15MOL   C218 4726   4.703   1.352   4.378 -1.1330 -0.1958  0.2719
   15MOL   H219 4727   4.747   1.481   4.203  1.1948  1.2483  0.0983
   15MOL   H220 4728   4.928   1.471   4.519  1.7300  1.5205  2.2607
   15MOL   H221 4729   5.307   1.489   4.304  0.0486  0.4741  0.5135
   15MOL   H222 4730   5.177   1.524   4.088  0.7208 -0.2361  0.3168
   15MOL   H223 4731   4.934   1.513   4.090 -3.2872 -2.6064  1.5513
   15MOL   H224 4732   4.724   1.364   4.485 -0.3203  0.1528  0.0785
   15MOL   H225 4733   4.596   1.341   4.358 -0.8886 -2.0334 -0.0751
   15MOL   C226 4734   4.765   1.220   4.334 -0.3126  0.4043  0.6887
   15MOL   C227 4735   4.692   1.105   4.401  0.8614  0.2555  0.1336
   15MOL   C228 4736   4.557   1.088   4.374 -0.3701  0.1382 -0.1780
   15MOL   C229 4737   4.483   0.996   4.444 -0.4756 -0.0519 -0.3595
   15MOL  Cl230 4738   4.316   0.994   4.420  0.2323 -0.1082  0.5336
   15MOL   C231 4739   4.541   0.909   4.531 -0.1040 -0.5840 -0.1573
   15MOL   C232 4740   4.684   0.925   4.558 -0.4656  0.1609 -0.0207
   15MOL   C233 4741   4.754   1.021   4.495 -0.1587 -0.5816 -0.0367
   15MOL   C234 4742   4.767   1.195   4.179 -0.1557 -0.2929 -0.0553
   15MOL   H235 4743   4.868   1.212   4.369 -0.1210  2.5589  0.6428
   15MOL   H236 4744   4.502   1.143   4.299 -0.8955  0.7575  0.6565
   15MOL   H237 4745   4.493   0.839   4.597  0.5506 -0.5391  0.3739
   15MOL   H238 4746   4.729   0.862   4.633 -0.7171  0.0603  0.0465
   15MOL   H239 4747   4.853   1.040   4.533 -1.5707  2.7178  2.2008
   15MOL   H240 4748   4.667   1.213   4.139 -0.5736  1.3951  1.6728
   15MOL   H241 4749   4.822   1.280   4.141 -0.0312  0.6611  2.1624
   15MOL   C242 4750   4.835   1.067   4.113  0.1617 -0.6488 -0.1649
   15MOL   C243 4751   4.974   1.048   4.164 -0.5124  0.0271  0.3298
   15MOL   C244 4752   5.077   1.124   4.102  0.4633  0.1710  0.4736
   15MOL   C245 4753   5.208   1.117   4.152  0.5669  0.1218  0.1534
   15MOL  Cl246 4754   5.330   1.205   4.075 -0.1622 -0.0247  0.0594
   15MOL   C247 4755   5.233   1.044   4.268 -0.5958  0.8784  0.2859
   15MOL   C248 4756   5.133   0.955   4.322  0.0045  0.1789  0.2451
   15MOL   C249 4757   5.006   0.956   4.264 -0.5646 -0.8402 -0.2401
   15MOL   C250 4758   4.744   0.936   4.121  0.2166  0.6235  0.4401
   15MOL   H251 4759   4.830   1.079   4.005  0.1481 -0.2891 -0.1252
   15MOL   H252 4760   5.051   1.182   4.015 -0.3989 -1.7345 -0.5737
   15MOL   H253 4761   5.332   1.044   4.311 -0.2093  0.5737 -0.5784
   15MOL   H254 4762   5.148   0.890   4.407  0.3694 -1.1543 -0.8168
   15MOL   H255 4763   4.938   0.883   4.305 -0.5661 -0.2371  0.8818
   15MOL   H256 4764   4.799   0.853   4.075 -1.1755  0.4030 -0.8661
   15MOL   H257 4765   4.731   0.900   4.223  0.1101 -1.4177 -0.2632
   15MOL   C258 4766   4.602   0.946   4.060  0.1313  0.1204 -0.3180
   15MOL   C259 4767   4.595   1.039   3.934  0.2810 -0.1569 -1.1322
   15MOL   C260 4768   4.669   1.017   3.814  0.1953 -0.3549 -1.0699
   15MOL   C261 4769   4.663   1.098   3.702  0.1251  0.8550 -0.5214
   15MOL  Cl262 4770   4.765   1.091   3.563 -0.0184  0.3336 -0.4287
   15MOL   C263 4771   4.571   1.204   3.710 -0.4727 -0.0285 -0.6729
   15MOL   C264 4772   4.504   1.239   3.832 -0.4971 -0.0974  0.1691
   15MOL   C265 4773   4.511   1.151   3.939 -0.2313  0.6494 -0.5170
   15MOL   C266 4774   4.551   0.805   4.016 -0.2354  0.3649  0.5615
   15MOL   H267 4775   4.529   0.985   4.131 -0.9149 -1.3820 -0.5624
   15MOL   H268 4776   4.744   0.941   3.797  1.2871  0.9788 -2.4485
   15MOL   H269 4777   4.557   1.272   3.627  0.8976  0.6863 -0.3204
   15MOL   H270 4778   4.440   1.325   3.847 -0.5796 -0.3510  1.3419
   15MOL   H271 4779   4.460   1.190   4.025 -1.5888 -0.2539 -0.9136
   15MOL   H272 4780   4.625   0.751   3.956 -0.7347  0.2876  0.0168
   15MOL   H273 4781   4.543   0.744   4.106  0.7048 -0.3820  0.1510
   15MOL   C274 4782   4.418   0.798   3.940 -0.3008 -0.2026  0.0955
   15MOL   C275 4783   4.390   0.652   3.887 -0.3981  0.2762 -0.4610
   15MOL   C276 4784   4.366   0.633   3.751 -0.1239  0.3354 -0.0056
   15MOL   C277 4785   4.362   0.500   3.703 -0.2226 -0.2265 -0.0229
   15MOL  Cl278 4786   4.336   0.480   3.535 -0.0252  0.0710  0.0904
   15MOL   C279 4787   4.366   0.388   3.788  0.6011  0.2831  0.7284
   15MOL   C280 4788   4.381   0.412   3.925  0.4774  0.5470 -0.2415
   15MOL   C281 4789   4.399   0.541   3.975  0.2840 -0.5456 -1.1406
   15MOL   C282 4790   4.303   0.856   4.022 -0.0441  0.6658 -0.1576
   15MOL   H283 4791   4.423   0.862   3.852 -1.5460 -1.1298 -0.6667
   15MOL   H284 4792   4.363   0.699   3.666  1.4407 -0.0441 -0.3815
   15MOL   H285 4793   4.350   0.287   3.752 -1.3904  1.0167 -0.5548
   15MOL   H286 4794   4.373   0.326   3.989  2.6316  1.7408  1.7190
   15MOL   H287 4795   4.404   0.557   4.082  2.0633 -1.2125 -1.1050
   15MOL   H288 4796   4.309   0.805   4.118  0.6804 -0.8542 -1.0001
   15MOL   H289 4797   4.313   0.962   4.045 -1.4979  0.7159  0.2918
   15MOL   C290 4798   4.147   0.836   3.977 -0.2958 -0.5809 -0.6308
   15MOL   C291 4799   4.073   0.729   4.047 -0.6545 -0.7202  0.9319
   15MOL   C292 4800   4.060   0.730   4.193  0.0263  0.4242  0.3091
   15MOL   C293 4801   4.013   0.615   4.257  0.3135 -0.1889 -0.0785
   15MOL  Cl294 4802   4.017   0.615   4.428  0.3110  0.0072  0.2127
   15MOL   C295 4803   3.973   0.504   4.180  0.3426  0.6223 -0.2279
   15MOL   C296 4804   3.979   0.507   4.043  0.0376 -0.5078  0.6470
   15MOL   C297 4805   4.029   0.618   3.969 -0.2410 -0.3903 -0.1831
   15MOL   C298 4806   4.067   0.974   3.988  0.2211  0.1086 -0.0129
   15MOL   H299 4807   4.150   0.812   3.870  2.7416 -1.2084 -0.4251
   15MOL   H300 4808   4.092   0.809   4.260  0.0283 -0.2396  1.0934
   15MOL   H301 4809   3.945   0.416   4.237  2.9411  0.0265  0.1976
   15MOL   H302 4810   3.941   0.417   3.994 -0.1175 -1.4806  2.5116
   15MOL   H303 4811   4.033   0.618   3.861  2.3197  0.3901 -0.1181
   15MOL   H304 4812   3.969   0.952   3.946  0.0778 -3.6544  2.0620
   15MOL   H305 4813   4.051   1.002   4.092  0.1218  1.8295 -0.4873
   15MOL   C306 4814   4.111   1.093   3.897  0.3844  0.4981  0.0145
   15MOL   C307 4815   4.129   1.063   3.748  0.3112 -0.3055  0.0040
   15MOL   C308 4816   4.013   1.046   3.667  0.2397  0.0430  0.6935
   15MOL   C309 4817   4.023   0.996   3.531 -0.2176  0.2856  0.3455
   15MOL  Cl310 4818   3.880   0.979   3.434 -0.0633 -0.0896  0.1315
   15MOL   C311 4819   4.156   0.970   3.481 -0.2280 -0.7115 -0.5410
   15MOL   C312 4820   4.269   0.981   3.570  0.3705  0.1246 -0.3006
   15MOL   C313 4821   4.259   1.032   3.698  0.0609  0.6274 -0.5539
   15MOL   C314 4822   4.013   1.214   3.903  0.0578  0.1874  0.9502
   15MOL   H315 4823   4.201   1.136   3.941 -1.1161  1.2167  2.4619
   15MOL   H316 4824   3.914   1.070   3.702 -0.3010  0.1657 -0.9211
   15MOL   H317 4825   4.164   0.961   3.373  0.8448  2.2796 -0.7732
   15MOL   H318 4826   4.369   0.978   3.529  0.1855 -2.1291 -0.6778
   15MOL   H319 4827   4.345   1.042   3.762 -0.4768 -0.0519  0.2782
   15MOL   H320 4828   4.002   1.250   4.006 -0.9044  2.3697  0.1241
   15MOL   H321 4829   4.039   1.301   3.843  0.9095  0.8251  2.2066
   15MOL   H322 4830   3.909   1.197   3.879  0.2373 -0.8339  0.8945
   16MOL     C1 4831   1.380   6.277   0.875  0.1947  0.5492 -0.2285
   16MOL     C2 4832   1.411   6.174   0.770 -0.1244 -0.0310  0.3281
   16MOL     C3 4833   1.509   6.074   0.792 -0.5757 -0.0790  0.4050
   16MOL     C4 4834   1.542   5.991   0.679 -0.1184  0.3541  0.2609
   16MOL    Cl5 4835   1.664   5.871   0.708 -0.2707  0.5097 -0.2865
   16MOL     C6 4836   1.488   6.014   0.552 -0.0684  0.9085 -0.4466
   16MOL     C7 4837   1.397   6.115   0.533 -0.3390  0.0742 -0.3214
   16MOL     C8 4838   1.350   6.194   0.641  0.4361  0.0111  0.2876
   16MOL     C9 4839   1.252   6.260   0.954  0.6573  0.5187 -0.3021
   16MOL    H10 4840   1.387   6.367   0.814 -0.5121  0.3614 -0.5829
   16MOL    H11 4841   1.554   6.065   0.889 -2.2646  0.8878  1.2987
   16MOL    H12 4842   1.514   5.945   0.472 -0.2693 -1.7639  1.7076
   16MOL    H13 4843   1.355   6.136   0.436  1.9957  1.6129 -1.0427
   16MOL    H14 4844   1.264   6.257   0.627  1.3232  0.7749 -1.8613
   16MOL    H15 4845   1.173   6.226   0.886  0.4067  0.1827  0.1504
   16MOL    H16 4846   1.255   6.187   1.035 -0.7731  0.4045 -0.3251
   16MOL    H17 4847   1.466   6.275   0.943 -1.0642 -0.8078  1.3622
   16MOL    C18 4848   1.169   6.371   1.019 -0.1604 -0.0122  0.3580
   16MOL    C19 4849   1.152   6.492   0.930  0.2503 -0.3297  0.9993
   16MOL    C20 4850   1.198   6.616   0.977  0.0547 -0.3625  0.8738
   16MOL    C21 4851   1.177   6.730   0.905 -0.2145 -0.1757 -0.2844
   16MOL   Cl22 4852   1.230   6.882   0.973  0.3628  0.0363  0.0273
   16MOL    C23 4853   1.126   6.729   0.772  0.3238 -0.6520 -0.1561
   16MOL    C24 4854   1.093   6.602   0.715 -0.1228 -1.3305  0.0865
   16MOL    C25 4855   1.102   6.490   0.797  0.5881 -0.3144 -0.7334
   16MOL    C26 4856   1.025   6.324   1.068  0.6572  0.5120 -0.2232
   16MOL    H27 4857   1.227   6.402   1.106 -0.2284  2.7748 -0.5377
   16MOL    H28 4858   1.241   6.625   1.075 -1.8669 -0.0596  1.7200
   16MOL    H29 4859   1.112   6.822   0.719  3.3249  0.7790  1.3829
   16MOL    H30 4860   1.061   6.593   0.613  3.9836 -2.3790 -1.1738
   16MOL    H31 4861   1.071   6.404   0.739  0.9576  0.5888 -2.3153
   16MOL    H32 4862   0.967   6.336   0.977 -0.1172  0.2318  0.2265
   16MOL    H33 4863   1.041   6.221   1.101  1.9787  0.9677  0.6016
   16MOL    C34 4864   0.964   6.409   1.185 -0.3250  0.1561  0.3696
   16MOL    C35 4865   0.908   6.547   1.150  0.0609  0.7917 -0.3828
   16MOL    C36 4866   0.892   6.633   1.252 -0.1173 -0.2323  0.1144
   16MOL    C37 4867   0.842   6.763   1.226  0.0141 -0.1662 -0.2083
   16MOL   Cl38 4868   0.827   6.885   1.350 -0.8114 -0.1533  0.6741
   16MOL    C39 4869   0.783   6.796   1.108  0.2622 -0.0842 -0.0129
   16MOL    C40 4870   0.805   6.714   0.997  0.2220 -0.1271  0.2844
   16MOL    C41 4871   0.864   6.586   1.016  0.0322  0.1567 -0.5653
   16MOL    C42 4872   0.858   6.323   1.263  0.1984  0.6565 -0.3146
   16MOL    H43 4873   1.044   6.425   1.257  1.0531 -3.0659 -0.3652
   16MOL    H44 4874   0.920   6.597   1.350 -1.5586 -1.6336  0.0272
   16MOL    H45 4875   0.742   6.894   1.091  0.4773 -0.2337 -1.4439
   16MOL    H46 4876   0.767   6.741   0.900  1.8627 -0.7789 -0.5713
   16MOL    H47 4877   0.880   6.529   0.926  1.2076 -0.0054 -0.2644
   16MOL    H48 4878   0.887   6.219   1.253  3.2205  1.5732 -1.7788
   16MOL    H49 4879   0.861   6.355   1.367 -1.7150  0.6949 -0.2577
   16MOL    C50 4880   0.710   6.340   1.235  0.5010 -0.8565 -0.5858
   16MOL    C51 4881   0.672   6.299   1.087  0.1441  0.2861  0.5852
   16MOL    C52 4882   0.716   6.175   1.036  0.0857  0.0950 -0.9411
   16MOL    C53 4883   0.675   6.121   0.917 -0.0732  0.4611 -0.3712
   16MOL   Cl54 4884   0.727   5.971   0.857  0.0405  0.2640  0.0360
   16MOL    C55 4885   0.585   6.197   0.839  0.0537 -0.1888 -0.2693
   16MOL    C56 4886   0.540   6.324   0.888  0.1616  0.4272  0.2452
   16MOL    C57 4887   0.584   6.376   1.010  0.2949 -0.3783 -0.2605
   16MOL    C58 4888   0.618   6.252   1.328 -0.3893  0.2328 -0.3461
   16MOL    H59 4889   0.680   6.443   1.252  1.2250 -0.2531 -2.7942
   16MOL    H60 4890   0.776   6.108   1.096  2.1735 -0.9582 -4.0780
   16MOL    H61 4891   0.542   6.169   0.744  0.6162 -0.3381 -0.4809
   16MOL    H62 4892   0.462   6.373   0.831  1.2767  1.0975 -0.7331
   16MOL    H63 4893   0.544   6.464   1.057  0.5556  0.5016 -1.6660
   16MOL    H64 4894   0.519   6.261   1.283 -0.8082  1.6722  0.8199
   16MOL    H65 4895   0.632   6.145   1.316 -0.0717  0.2841 -0.4461
   16MOL    C66 4896   0.597   6.296   1.480  0.5980  0.3368  0.7034
   16MOL    C67 4897   0.580   6.446   1.492  0.0157  0.7763 -0.2024
   16MOL    C68 4898   0.467   6.504   1.439  0.8561 -0.0801  0.1162
   16MOL    C69 4899   0.446   6.645   1.454 -0.2270  0.3310 -0.0351
   16MOL   Cl70 4900   0.324   6.730   1.378  0.2410  0.1360  0.1915
   16MOL    C71 4901   0.538   6.723   1.530 -0.4051  0.1101 -0.3659
   16MOL    C72 4902   0.647   6.661   1.583  0.4428  0.2321 -0.2497
   16MOL    C73 4903   0.674   6.523   1.567  0.4483  0.5317 -0.0367
   16MOL    C74 4904   0.486   6.217   1.559  0.0207  0.1771  0.0750
   16MOL    H75 4905   0.693   6.271   1.525  0.4333  0.2623  1.0129
   16MOL    H76 4906   0.397   6.443   1.385  1.7013  0.5774 -1.7795
   16MOL    H77 4907   0.526   6.830   1.542 -2.6622 -0.1510 -0.1122
   16MOL    H78 4908   0.720   6.721   1.637  1.1235 -0.5905 -0.2476
   16MOL    H79 4909   0.762   6.477   1.609  0.8592  1.4730  0.1591
   16MOL    H80 4910   0.390   6.239   1.512 -0.7494 -1.1139  1.0246
   16MOL    H81 4911   0.495   6.111   1.537  0.6247 -0.0332  1.3171
   16MOL    C82 4912   0.482   6.240   1.713 -0.1150 -0.4804  0.1246
   16MOL    C83 4913   0.412   6.369   1.756  0.2963 -0.2530  0.3417
   16MOL    C84 4914   0.277   6.389   1.726  0.1356  0.2018 -0.3524
   16MOL    C85 4915   0.220   6.510   1.762 -0.2954  0.3874  0.4116
   16MOL   Cl86 4916   0.063   6.539   1.702  0.1713 -0.0180 -0.0832
   16MOL    C87 4917   0.284   6.607   1.836 -0.1619  0.5282  0.7495
   16MOL    C88 4918   0.415   6.585   1.878 -0.1003 -0.2196 -0.0330
   16MOL    C89 4919   0.481   6.463   1.838  0.1320  0.1221  0.3183
   16MOL    C90 4920   0.421   6.113   1.787 -0.0011 -0.4646 -0.0977
   16MOL    H91 4921   0.586   6.248   1.744 -0.0764 -0.2567 -0.0617
   16MOL    H92 4922   0.224   6.331   1.651 -0.5218 -1.1015  1.1061
   16MOL    H93 4923   0.236   6.702   1.854  1.0523  1.2677  0.1338
   16MOL    H94 4924   0.474   6.658   1.932 -0.5726  1.3597 -1.6052
   16MOL    H95 4925   0.584   6.454   1.870 -0.6778 -1.2190  2.6077
   16MOL    H96 4926   0.322   6.093   1.749 -0.8091  0.5664  1.4111
   16MOL    H97 4927   0.478   6.026   1.753 -1.0056 -0.3697 -2.0705
   16MOL    C98 4928   0.420   6.120   1.948  0.0676  0.7206  0.2436
   16MOL    C99 4929   0.377   5.988   2.011 -0.3063 -0.8134 -0.2326
   16MOL   C100 4930   0.241   5.971   2.059 -1.1185 -0.3584  0.0411
   16MOL   C101 4931   0.207   5.859   2.135 -0.0563 -0.3373 -0.0230
   16MOL  Cl102 4932   0.058   5.850   2.217 -0.3053  0.3029 -0.5475
   16MOL   C103 4933   0.292   5.751   2.140  0.3726 -0.5422  0.3288
   16MOL   C104 4934   0.414   5.759   2.077 -0.2647  0.4061  0.4590
   16MOL   C105 4935   0.461   5.879   2.015 -0.2387 -0.3710  0.3207
   16MOL   C106 4936   0.561   6.158   2.001 -0.1004  0.2339 -0.5562
   16MOL   H107 4937   0.340   6.189   1.974 -1.0633 -0.0638 -1.0866
   16MOL   H108 4938   0.170   6.050   2.042 -1.4360 -0.9833 -1.6638
   16MOL   H109 4939   0.267   5.663   2.197 -0.4780 -0.0679  0.6950
   16MOL   H110 4940   0.478   5.672   2.084  1.6059  1.9220  2.5269
   16MOL   H111 4941   0.555   5.878   1.962 -1.2319  0.8198 -1.4886
   16MOL   H112 4942   0.637   6.099   1.950 -1.5965 -0.5110 -1.9399
   16MOL   H113 4943   0.593   6.257   1.968  1.8036  0.3201  1.4397
   16MOL   C114 4944   0.592   6.147   2.160 -0.1266  0.2751  0.1705
   16MOL   C115 4945   0.732   6.183   2.191  0.2811  0.0883 -0.7990
   16MOL   C116 4946   0.767   6.319   2.203  0.6584 -0.2265  0.4640
   16MOL   C117 4947   0.898   6.361   2.226  0.1003 -0.3600 -0.1941
   16MOL  Cl118 4948   0.939   6.525   2.245  0.3046  0.1709  0.1331
   16MOL   C119 4949   0.997   6.260   2.238 -0.7654 -0.4147 -0.1637
   16MOL   C120 4950   0.970   6.120   2.223  0.4034  0.2577  0.5173
   16MOL   C121 4951   0.829   6.086   2.202 -0.6879  0.0889 -0.0232
   16MOL   C122 4952   0.478   6.213   2.252 -0.7746  0.1414 -0.0163
   16MOL   H123 4953   0.579   6.041   2.186  0.8371 -0.2125 -1.2981
   16MOL   H124 4954   0.691   6.394   2.191  1.5280  0.9535  2.1412
   16MOL   H125 4955   1.098   6.295   2.256 -0.9092  0.0863 -0.3349
   16MOL   H126 4956   1.044   6.041   2.218  0.6711  0.6142 -2.0295
   16MOL   H127 4957   0.798   5.982   2.198  2.0900 -0.8743  1.8813
   16MOL   H128 4958   0.489   6.322   2.246  1.4668 -0.1553 -2.5152
   16MOL   H129 4959   0.375   6.196   2.223 -0.7382  1.5945 -1.0730
   16MOL   C130 4960   0.488   6.181   2.401  0.3232 -0.1707  0.0512
   16MOL   C131 4961   0.428   6.294   2.490 -0.5543 -0.1269 -0.3007
   16MOL   C132 4962   0.477   6.324   2.616  0.2964 -0.2814 -0.1308
   16MOL   C133 4963   0.422   6.414   2.703 -0.1335  0.0584 -0.5279
   16MOL  Cl134 4964   0.478   6.435   2.865 -0.0400 -0.2609 -0.0228
   16MOL   C135 4965   0.305   6.483   2.669 -0.5761 -0.3621  0.0967
   16MOL   C136 4966   0.247   6.457   2.540  0.4266 -0.0950  0.7203
   16MOL   C137 4967   0.307   6.364   2.453 -0.7127  0.8612 -0.4638
   16MOL   C138 4968   0.434   6.042   2.424  0.0441 -0.0223  0.0759
   16MOL   H139 4969   0.593   6.177   2.430  0.1657 -2.3305  0.4060
   16MOL   H140 4970   0.567   6.269   2.638 -0.8400 -2.0561  0.1847
   16MOL   H141 4971   0.266   6.567   2.726  0.5273  0.7890 -0.7969
   16MOL   H142 4972   0.155   6.506   2.510 -0.2080 -1.2945  0.6867
   16MOL   H143 4973   0.272   6.364   2.351 -0.7992  0.8254 -0.4345
   16MOL   H144 4974   0.333   6.043   2.384 -0.4157  1.8318  1.2258
   16MOL   H145 4975   0.479   5.969   2.357  0.7516 -0.0584  0.5805
   16MOL   C146 4976   0.434   5.977   2.563  0.1326 -0.1236 -0.3182
   16MOL   C147 4977   0.310   5.892   2.581 -0.3900  0.2782 -0.3578
   16MOL   C148 4978   0.302   5.760   2.532 -0.0361  0.4377 -0.1770
   16MOL   C149 4979   0.182   5.683   2.548 -0.2839 -0.3212 -0.5464
   16MOL  Cl150 4980   0.190   5.525   2.478 -0.1270  0.3140 -0.0051
   16MOL   C151 4981   0.079   5.741   2.616 -0.0984  0.3372  0.2546
   16MOL   C152 4982   0.087   5.868   2.676  0.2710  0.7690 -0.0159
   16MOL   C153 4983   0.202   5.946   2.653 -0.0542  0.3431  0.2061
   16MOL   C154 4984   0.573   5.906   2.583  0.0218  0.2092 -0.2437
   16MOL   H155 4985   0.424   6.060   2.633 -1.7624  1.4206 -2.3468
   16MOL   H156 4986   0.378   5.728   2.462 -1.9328 -1.5111 -1.4048
   16MOL   H157 4987   8.422   5.687   2.635 -0.4846  0.8517 -0.1561
   16MOL   H158 4988   8.434   5.918   2.715 -0.7086 -0.9327 -0.0308
   16MOL   H159 4989   0.206   6.045   2.695 -1.0217  0.3803  0.2149
   16MOL   H160 4990   0.573   5.820   2.515 -1.2859  0.8742 -1.1204
   16MOL   H161 4991   0.656   5.972   2.556 -0.5999  1.6466  1.3052
   16MOL   C162 4992   0.614   5.844   2.716 -0.1990  0.3857  0.7189
   16MOL   C163 4993   0.742   5.768   2.706  0.4245  0.4006 -0.3259
   16MOL   C164 4994   0.856   5.828   2.650 -0.0498 -0.1844 -0.9454
   16MOL   C165 4995   0.978   5.758   2.627  0.1355 -0.0186 -0.2673
   16MOL  Cl166 4996   1.100   5.834   2.526 -0.3617  0.0863  0.1251
   16MOL   C167 4997   0.981   5.624   2.674  0.1305 -0.1969 -0.3864
   16MOL   C168 4998   0.870   5.569   2.745  0.7696  0.1765  0.2558
   16MOL   C169 4999   0.745   5.639   2.756  0.3730  0.5175  0.0245
   16MOL   C170 5000   0.622   5.951   2.829 -1.0961 -0.1298  0.9780
   16MOL   H171 5001   0.536   5.774   2.745  0.0680 -0.7491 -1.2125
   16MOL   H172 5002   0.849   5.932   2.620  1.1814 -0.1485 -1.1607
   16MOL   H173 5003   1.061   5.563   2.633 -1.3969 -1.8880 -0.9534
   16MOL   H174 5004   0.869   5.465   2.774 -2.7800  0.4337  1.2769
   16MOL   H175 5005   0.661   5.603   2.813  0.9036  0.3171  0.6904
   16MOL   H176 5006   0.721   5.958   2.873 -1.9675 -0.4014  3.0345
   16MOL   H177 5007   0.622   6.053   2.791 -3.3565  0.4737  2.5202
   16MOL   C178 5008   0.519   5.932   2.940  0.2213  0.0568 -0.2625
   16MOL   C179 5009   0.530   5.790   3.010  0.2126 -0.8505 -0.1939
   16MOL   C180 5010   0.433   5.688   3.001 -0.1785 -0.4561  0.5682
   16MOL   C181 5011   0.460   5.563   3.059 -0.6238 -0.5004 -0.1513
   16MOL  Cl182 5012   0.336   5.443   3.045 -0.0067  0.2817 -0.1312
   16MOL   C183 5013   0.580   5.538   3.126 -0.6802 -0.0267 -0.2425
   16MOL   C184 5014   0.666   5.646   3.150 -0.0564  0.4880 -0.2968
   16MOL   C185 5015   0.647   5.765   3.081  0.3990  0.1587  0.7193
   16MOL   C186 5016   0.527   6.045   3.049 -0.2791  0.6247 -0.4253
   16MOL   H187 5017   0.431   5.941   2.876  0.1563 -0.2410 -0.2119
   16MOL   H188 5018   0.340   5.706   2.948  0.1314  0.0826  0.1933
   16MOL   H189 5019   0.582   5.438   3.168  2.6293 -0.6793 -1.8031
   16MOL   H190 5020   0.759   5.644   3.205  0.2449 -0.7222 -0.8207
   16MOL   H191 5021   0.724   5.835   3.111 -0.9124  1.5208  0.9500
   16MOL   H192 5022   0.630   6.061   3.081  0.1904 -1.3121 -0.8596
   16MOL   H193 5023   0.486   6.140   3.014 -1.2439  0.4992  0.3636
   16MOL   C194 5024   0.444   6.015   3.173 -0.5135 -0.2628  0.7457
   16MOL   C195 5025   0.467   6.121   3.281 -0.2138 -0.1237 -0.1663
   16MOL   C196 5026   0.398   6.246   3.276 -0.1002 -0.2648  0.5795
   16MOL   C197 5027   0.421   6.342   3.376 -0.2634 -0.1483 -0.1603
   16MOL  Cl198 5028   0.326   6.482   3.381 -0.0501  0.1215  0.1324
   16MOL   C199 5029   0.511   6.317   3.484 -0.3298  0.0416 -0.0874
   16MOL   C200 5030   0.583   6.198   3.482  0.1963  0.3385 -0.4554
   16MOL   C201 5031   0.570   6.100   3.381 -0.0324 -1.5132 -0.7344
   16MOL   C202 5032   0.301   5.964   3.162 -0.4464  0.0543 -0.1194
   16MOL   H203 5033   0.493   5.929   3.221 -1.6723 -1.9271 -0.9954
   16MOL   H204 5034   0.331   6.261   3.193 -1.2068  0.6982  1.6330
   16MOL   H205 5035   0.526   6.385   3.566  1.6576  0.3230 -0.6557
   16MOL   H206 5036   0.655   6.187   3.562 -0.0780 -3.9455 -0.7151
   16MOL   H207 5037   0.621   6.005   3.380  0.8839 -1.0867 -4.8349
   16MOL   H208 5038   0.248   6.043   3.109 -2.0059  0.8015  2.4606
   16MOL   H209 5039   0.290   5.885   3.088 -0.1794 -1.3144  1.2617
   16MOL   C210 5040   0.233   5.920   3.297 -0.4371 -0.1018 -0.2750
   16MOL   C211 5041   0.082   5.924   3.285  0.0255 -0.2248  0.0945
   16MOL   C212 5042   0.021   6.041   3.330  0.4090  0.1279  0.5937
   16MOL   C213 5043   8.318   6.048   3.317 -0.3551  0.8001  0.0443
   16MOL  Cl214 5044   8.240   6.187   3.381  0.3983  0.3106  0.0743
   16MOL   C215 5045   8.243   5.945   3.262 -0.3561  0.4962 -0.2163
   16MOL   C216 5046   8.308   5.828   3.218  0.0612  0.3641  0.5932
   16MOL   C217 5047   0.008   5.820   3.226  0.6069  0.1330  0.1159
   16MOL   C218 5048   0.277   5.780   3.330 -0.4099  0.4097 -0.1186
   16MOL   H219 5049   0.271   5.998   3.364  0.8318 -0.5550 -0.4565
   16MOL   H220 5050   0.063   6.127   3.381  0.4804  0.8339 -0.6292
   16MOL   H221 5051   8.135   5.940   3.270 -0.4867  2.2529 -0.5757
   16MOL   H222 5052   8.257   5.745   3.170 -0.9582  0.3620  1.6298
   16MOL   H223 5053   0.060   5.733   3.189  0.1337 -1.1259  2.2774
   16MOL   H224 5054   0.254   5.711   3.249 -1.6680  0.0360  0.5471
   16MOL   H225 5055   0.386   5.784   3.324 -0.2916  0.1626  1.5014
   16MOL   C226 5056   0.251   5.730   3.479 -0.2683  0.1484 -0.1331
   16MOL   C227 5057   0.266   5.578   3.487  0.0391 -0.8826  0.1808
   16MOL   C228 5058   0.375   5.506   3.441  0.2053 -0.5439  0.2605
   16MOL   C229 5059   0.378   5.363   3.449 -0.6419 -0.3661  0.2991
   16MOL  Cl230 5060   0.498   5.263   3.374 -0.1756 -0.1801 -0.0684
   16MOL   C231 5061   0.270   5.294   3.509  0.3682  0.3929 -0.5837
   16MOL   C232 5062   0.164   5.367   3.564 -0.2080 -0.0336 -0.0573
   16MOL   C233 5063   0.160   5.508   3.553  0.2116  0.0810 -0.1153
   16MOL   C234 5064   0.333   5.808   3.581 -0.2083 -0.6233 -0.1284
   16MOL   H235 5065   0.152   5.766   3.506 -0.8069 -2.3594  1.3660
   16MOL   H236 5066   0.452   5.555   3.384  1.1716 -4.0158 -1.5914
   16MOL   H237 5067   0.269   5.187   3.527 -1.3168  0.3931 -0.6246
   16MOL   H238 5068   0.097   5.307   3.624  0.9908 -1.7106 -0.3528
   16MOL   H239 5069   0.078   5.560   3.601  0.1005  0.8003 -1.0919
   16MOL   H240 5070   0.435   5.791   3.545  0.3548 -1.9907  2.0227
   16MOL   H241 5071   0.303   5.912   3.579  1.8847  0.0064  0.7134
   16MOL   C242 5072   0.333   5.758   3.724  0.0540 -0.4333  0.4347
   16MOL   C243 5073   0.446   5.821   3.807  0.0851 -0.1462 -0.0372
   16MOL   C244 5074   0.504   5.949   3.775 -0.5816 -0.1241 -0.1305
   16MOL   C245 5075   0.620   5.989   3.850 -0.1016 -0.3047  0.3328
   16MOL  Cl246 5076   0.693   6.143   3.815 -0.1371 -0.1392 -0.3944
   16MOL   C247 5077   0.675   5.905   3.944  0.0846 -0.6040 -0.3825
   16MOL   C248 5078   0.613   5.783   3.982  0.4659 -0.2467  0.6373
   16MOL   C249 5079   0.498   5.741   3.913 -0.0141 -0.2123 -0.3260
   16MOL   C250 5080   0.193   5.750   3.795 -0.0363 -0.0641  0.3224
   16MOL   H251 5081   0.363   5.653   3.717 -0.8749 -0.6736  0.0099
   16MOL   H252 5082   0.459   6.016   3.703 -2.7190 -1.0403  0.3179
   16MOL   H253 5083   0.767   5.934   3.992  0.5832  0.7544 -2.1569
   16MOL   H254 5084   0.655   5.710   4.049  0.6229  0.7682  1.6486
   16MOL   H255 5085   0.452   5.646   3.938  1.5415 -0.6848  0.8271
   16MOL   H256 5086   0.115   5.745   3.720 -0.9889 -0.3483  1.3148
   16MOL   H257 5087   0.179   5.661   3.857 -0.8113 -0.8242 -0.9123
   16MOL   C258 5088   0.151   5.858   3.897 -0.5331 -0.3381  0.4929
   16MOL   C259 5089   0.158   5.993   3.828 -0.5953  0.3601  0.2737
   16MOL   C260 5090   0.257   6.088   3.867  0.0176  0.2119 -0.1597
   16MOL   C261 5091   0.269   6.219   3.802  0.3780 -0.2590 -0.3292
   16MOL  Cl262 5092   0.390   6.335   3.855  0.3915 -0.5393  0.1677
   16MOL   C263 5093   0.172   6.249   3.702  0.3954 -0.0009  0.4394
   16MOL   C264 5094   0.075   6.156   3.672  0.0261  0.6967  0.3898
   16MOL   C265 5095   0.072   6.028   3.723 -0.3092  0.6985  0.0487
   16MOL   C266 5096   0.009   5.846   3.959  1.1294  0.2899  0.5651
   16MOL   H267 5097   0.232   5.861   3.970 -0.2015  0.5251  0.0926
   16MOL   H268 5098   0.316   6.064   3.954  0.2855 -1.3676 -0.7525
   16MOL   H269 5099   0.172   6.347   3.657  0.7440 -0.6244 -0.9490
   16MOL   H270 5100   0.004   6.179   3.594  0.3060 -0.6437 -0.2771
   16MOL   H271 5101   8.422   5.967   3.694  0.6299 -0.4409 -0.3775
   16MOL   H272 5102   8.418   5.938   4.012 -1.9304 -2.0331  3.2610
   16MOL   H273 5103   8.372   5.817   3.882  0.5141 -0.9335  1.5818
   16MOL   C274 5104   8.433   5.735   4.066  0.2408 -0.6101  0.4619
   16MOL   C275 5105   0.095   5.741   4.181 -0.2653  0.4640 -0.3219
   16MOL   C276 5106   0.118   5.856   4.253 -0.9597 -0.5110 -0.4840
   16MOL   C277 5107   0.213   5.863   4.356 -0.8404 -0.4381  0.5773
   16MOL  Cl278 5108   0.228   6.002   4.447 -0.0590  0.1805  0.0590
   16MOL   C279 5109   0.289   5.744   4.379  0.4086  0.1682 -0.3950
   16MOL   C280 5110   0.267   5.628   4.303 -0.4103  0.1746  0.2331
   16MOL   C281 5111   0.162   5.621   4.215  0.3272 -0.6060  0.3369
   16MOL   C282 5112   8.293   5.715   4.115 -1.4395 -0.1200 -0.0444
   16MOL   H283 5113   0.023   5.640   4.019 -0.7262 -0.2176 -0.8681
   16MOL   H284 5114   0.061   5.944   4.230 -1.8887 -1.7361 -3.0720
   16MOL   H285 5115   0.367   5.749   4.454  0.8158  0.7774 -0.8549
   16MOL   H286 5116   0.332   5.544   4.320 -3.1441 -1.9757  0.5191
   16MOL   H287 5117   0.134   5.520   4.186 -1.9444  0.1092 -0.0777
   16MOL   H288 5118   8.302   5.631   4.184  1.0993 -0.9499 -1.3246
   16MOL   H289 5119   8.253   5.803   4.166  0.7236  0.8439  0.0676
   16MOL   C290 5120   8.185   5.666   4.019  0.1346  0.0137  0.0476
   16MOL   C291 5121   8.230   5.548   3.938  0.7228 -0.0945 -0.6205
   16MOL   C292 5122   8.223   5.550   3.799  1.2015  1.0151  0.0205
   16MOL   C293 5123   8.243   5.432   3.716 -0.6497 -0.6500 -0.1188
   16MOL  Cl294 5124   8.220   5.435   3.547 -0.2287  0.1096  0.0734
   16MOL   C295 5125   8.281   5.315   3.776  0.5706  0.2174  0.6053
   16MOL   C296 5126   8.306   5.315   3.920 -0.1718  0.0780 -0.3641
   16MOL   C297 5127   8.271   5.422   4.001  0.2575 -0.1760 -0.3976
   16MOL   C298 5128   8.055   5.651   4.103  0.6772 -0.1263 -0.3096
   16MOL   H299 5129   8.171   5.744   3.945 -2.5965 -0.3199  0.1592
   16MOL   H300 5130   8.179   5.633   3.746  1.0633  1.1065  0.2803
   16MOL   H301 5131   8.292   5.222   3.723 -3.1102  0.3202 -0.4341
   16MOL   H302 5132   8.341   5.225   3.967  1.9068 -0.6536 -3.1501
   16MOL   H303 5133   8.282   5.395   4.105  1.7921  1.0302 -0.2222
   16MOL   H304 5134   8.071   5.570   4.173 -1.5541  1.7669  2.5044
   16MOL   H305 5135   8.030   5.743   4.157  1.2234 -0.7912  1.0784
   16MOL   C306 5136   7.931   5.619   4.020 -0.3009  0.9613 -1.0359
   16MOL   C307 5137   7.814   5.552   4.093 -0.2392 -0.8013 -1.3264
   16MOL   C308 5138   7.695   5.615   4.132 -0.1067  0.3085 -0.2067
   16MOL   C309 5139   7.600   5.545   4.206  0.0562  0.4981 -0.6851
   16MOL  Cl310 5140   7.470   5.636   4.290 -0.0745 -0.1137 -0.2168
   16MOL   C311 5141   7.618   5.414   4.248  0.1842 -0.4036 -0.1628
   16MOL   C312 5142   7.729   5.347   4.205  0.1539 -0.6627 -0.1694
   16MOL   C313 5143   7.833   5.416   4.139  0.1254 -0.6365 -0.3211
   16MOL   C314 5144   7.889   5.749   3.945 -0.0918 -0.9591  0.1412
   16MOL   H315 5145   7.960   5.541   3.950 -1.6238 -1.0083  0.5672
   16MOL   H316 5146   7.670   5.716   4.103 -3.4980 -0.1751  0.8064
   16MOL   H317 5147   7.543   5.366   4.309  0.4924 -0.7891 -0.0874
   16MOL   H318 5148   7.733   5.242   4.230 -2.2554 -0.1855  2.5731
   16MOL   H319 5149   7.925   5.362   4.123  0.8804 -0.8151  4.0147
   16MOL   H320 5150   7.819   5.727   3.865  1.4625 -1.0167 -1.2324
   16MOL   H321 5151   7.848   5.826   4.010  0.2682 -1.4642  0.9842
   16MOL   H322 5152   7.974   5.802   3.902 -1.6132  0.4024 -1.2316
   17MOL     C1 5153   7.061   0.937   6.480 -0.7523 -0.3858  0.5361
   17MOL     C2 5154   7.130   1.029   6.383 -0.4433  0.1708  0.8364
   17MOL     C3 5155   7.264   1.005   6.339  0.0815  1.2388 -0.0263
   17MOL     C4 5156   7.327   1.097   6.260 -0.8046 -0.5796 -0.3579
   17MOL    Cl5 5157   7.483   1.055   6.203 -0.3550  0.0680  0.1162
   17MOL     C6 5158   7.256   1.219   6.222  0.3905 -0.1111  0.0516
   17MOL     C7 5159   7.127   1.252   6.267  0.2433  0.2223 -0.4123
   17MOL     C8 5160   7.062   1.140   6.334  0.3283  1.1583 -0.7494
   17MOL     C9 5161   7.056   0.789   6.436 -0.4981  0.2947  0.4115
   17MOL    H10 5162   6.962   0.980   6.492  0.2318  1.7922  1.1402
   17MOL    H11 5163   7.318   0.918   6.375  1.7330  1.1173 -2.6016
   17MOL    H12 5164   7.314   1.283   6.157  1.0214  0.5940  1.2949
   17MOL    H13 5165   7.084   1.347   6.241  1.7579  1.2019  0.5390
   17MOL    H14 5166   6.957   1.142   6.360  0.8802 -0.4487  1.8045
   17MOL    H15 5167   7.017   0.789   6.334 -0.2191 -3.6671  0.2389
   17MOL    H16 5168   7.160   0.758   6.428 -0.1538  1.6382 -0.5955
   17MOL    H17 5169   7.099   0.929   6.581  1.0673 -1.4277 -0.2011
   17MOL    C18 5170   6.990   0.689   6.533 -0.4486 -0.3058  0.2379
   17MOL    C19 5171   6.840   0.717   6.524 -0.2277 -0.2934  0.7267
   17MOL    C20 5172   6.765   0.765   6.631  0.0361  0.4105 -0.6170
   17MOL    C21 5173   6.625   0.786   6.626 -0.3069  0.3885 -0.6641
   17MOL   Cl22 5174   6.551   0.843   6.772  0.3247 -0.2974  0.3393
   17MOL    C23 5175   6.556   0.755   6.508  0.0642  0.5039  0.1522
   17MOL    C24 5176   6.627   0.704   6.397  0.3840 -0.5155  0.9122
   17MOL    C25 5177   6.767   0.697   6.405 -0.7320  0.1282  0.1944
   17MOL    C26 5178   7.011   0.539   6.493 -0.0690  0.6070  0.1346
   17MOL    H27 5179   7.020   0.717   6.634 -1.4186 -1.6642  0.9152
   17MOL    H28 5180   6.811   0.799   6.722 -1.2490  2.2007 -0.6177
   17MOL    H29 5181   6.449   0.762   6.495  0.0494 -0.3173 -0.2186
   17MOL    H30 5182   6.563   0.683   6.312 -0.1416  1.4186  0.8057
   17MOL    H31 5183   6.817   0.674   6.312 -2.7398  2.1920 -1.4394
   17MOL    H32 5184   6.935   0.477   6.540  0.3540  0.4380  0.6030
   17MOL    H33 5185   6.984   0.535   6.388 -1.9273  4.0519  0.4190
   17MOL    C34 5186   7.155   0.479   6.524  0.8683  0.0608  0.3354
   17MOL    C35 5187   7.177   0.500   6.671 -0.4703 -0.2658  0.4452
   17MOL    C36 5188   7.105   0.409   6.752 -0.1566  0.6250  0.0419
   17MOL    C37 5189   7.140   0.405   6.890 -0.1179  1.2443  0.6575
   17MOL   Cl38 5190   7.060   0.287   6.985 -0.2968 -0.0879 -0.0196
   17MOL    C39 5191   7.238   0.483   6.941 -0.1074  0.3769  0.0310
   17MOL    C40 5192   7.319   0.566   6.859  0.1067 -0.3284  0.4850
   17MOL    C41 5193   7.285   0.575   6.721  0.0177 -0.7065 -0.5562
   17MOL    C42 5194   7.188   0.343   6.458 -0.7916  0.5397  0.8414
   17MOL    H43 5195   7.220   0.553   6.478  0.6156 -0.6412 -1.1538
   17MOL    H44 5196   7.023   0.359   6.702 -0.6100  0.1817  1.2274
   17MOL    H45 5197   7.268   0.491   7.044 -0.2014 -0.4257  0.1228
   17MOL    H46 5198   7.405   0.626   6.885 -1.2583  1.8033  0.2515
   17MOL    H47 5199   7.338   0.639   6.652 -1.4236  1.4024  0.2583
   17MOL    H48 5200   7.119   0.274   6.506 -2.4582  0.5159 -1.5116
   17MOL    H49 5201   7.154   0.337   6.355  2.5138  1.5267 -0.3586
   17MOL    C50 5202   7.344   0.291   6.470 -0.2848  0.1841 -0.1456
   17MOL    C51 5203   7.338   0.157   6.548  0.2953  0.1748  0.6507
   17MOL    C52 5204   7.273   0.044   6.492 -0.1926 -0.0617 -0.3286
   17MOL    C53 5205   7.254   8.362   6.570 -0.1464  0.5334  0.0444
   17MOL   Cl54 5206   7.175   8.225   6.496 -0.0303 -0.1173 -0.3230
   17MOL    C55 5207   7.321   8.355   6.696  0.3800  0.0154 -0.0047
   17MOL    C56 5208   7.391   0.030   6.755 -0.2748  0.4239  0.5233
   17MOL    C57 5209   7.396   0.149   6.677 -0.0693  0.3385 -0.1716
   17MOL    C58 5210   7.403   0.251   6.324 -1.3029  0.0710 -0.2447
   17MOL    H59 5211   7.409   0.370   6.508  0.6879 -0.8626  0.4273
   17MOL    H60 5212   7.232   0.049   6.392  0.2663 -0.4844 -0.5431
   17MOL    H61 5213   7.315   8.264   6.755  1.9810 -1.0834 -1.4648
   17MOL    H62 5214   7.431   0.028   6.855 -2.0492 -0.0533  1.2439
   17MOL    H63 5215   7.456   0.229   6.717  0.5431 -1.4236  2.5596
   17MOL    H64 5216   7.499   0.199   6.326  0.0569  2.4847 -1.0488
   17MOL    H65 5217   7.347   0.185   6.259 -1.5613 -1.8718  1.8765
   17MOL    C66 5218   7.432   0.378   6.234 -0.0497  0.3198 -0.6467
   17MOL    C67 5219   7.520   0.481   6.298 -0.7040  0.4564  0.4662
   17MOL    C68 5220   7.655   0.460   6.317 -0.1248  0.1288 -0.3814
   17MOL    C69 5221   7.735   0.566   6.364 -0.6801  0.0853 -0.3408
   17MOL   Cl70 5222   7.906   0.539   6.385  0.1759 -0.2227 -0.2483
   17MOL    C71 5223   7.677   0.690   6.394  0.2922  0.8228  0.5998
   17MOL    C72 5224   7.540   0.714   6.371  0.3022 -0.6961  0.5690
   17MOL    C73 5225   7.464   0.604   6.327 -0.1585 -0.0476 -0.6222
   17MOL    C74 5226   7.474   0.342   6.086 -0.0874  0.3554  0.1673
   17MOL    H75 5227   7.331   0.419   6.228 -0.2629  0.0778  1.0240
   17MOL    H76 5228   7.702   0.369   6.284 -0.9494  0.2585 -1.9950
   17MOL    H77 5229   7.741   0.773   6.422  1.1135  1.0284 -1.8014
   17MOL    H78 5230   7.502   0.814   6.383  2.8327  0.3729 -0.0697
   17MOL    H79 5231   7.360   0.621   6.303 -1.4361 -2.5127  2.7064
   17MOL    H80 5232   7.565   0.284   6.098  0.4462  1.1842  0.1359
   17MOL    H81 5233   7.409   0.263   6.048 -1.8843  2.9763 -2.5033
   17MOL    C82 5234   7.496   0.458   5.990  0.1515  0.0497 -1.0770
   17MOL    C83 5235   7.566   0.396   5.870  0.7124 -0.1574 -0.1520
   17MOL    C84 5236   7.700   0.361   5.876  0.1694  0.1393  0.0423
   17MOL    C85 5237   7.768   0.309   5.764 -0.2004 -0.5847 -0.0195
   17MOL   Cl86 5238   7.934   0.269   5.760 -0.6710  0.2265  0.0687
   17MOL    C87 5239   7.700   0.305   5.641 -0.1729 -0.8104 -0.6048
   17MOL    C88 5240   7.559   0.339   5.638 -0.2337  0.1461 -0.1241
   17MOL    C89 5241   7.489   0.380   5.752 -0.3391 -0.3228 -0.4585
   17MOL    C90 5242   7.369   0.541   5.965 -0.6802 -0.8022  0.6229
   17MOL    H91 5243   7.564   0.521   6.047 -0.5748 -0.2715  0.1476
   17MOL    H92 5244   7.751   0.366   5.971 -0.4824  1.2152  0.3388
   17MOL    H93 5245   7.753   0.276   5.552 -0.1120  1.7713 -1.4596
   17MOL    H94 5246   7.506   0.332   5.544 -1.1701 -1.6256  0.5101
   17MOL    H95 5247   7.386   0.408   5.739 -0.0099  0.1035 -2.2080
   17MOL    H96 5248   7.281   0.496   5.920  0.1125 -1.3493 -0.3889
   17MOL    H97 5249   7.334   0.567   6.065  0.0769  0.5044  0.5619
   17MOL    C98 5250   7.390   0.683   5.902  0.4041 -0.4108 -0.2074
   17MOL    C99 5251   7.250   0.751   5.903  0.5637 -0.2968  0.4123
   17MOL   C100 5252   7.165   0.744   5.791  0.8042 -0.7782  0.1593
   17MOL   C101 5253   7.048   0.802   5.789  0.5615  0.0167  0.6183
   17MOL  Cl102 5254   6.950   0.775   5.648 -0.1483 -0.0552 -0.3450
   17MOL   C103 5255   6.996   0.874   5.899 -0.6162 -0.8903  0.2903
   17MOL   C104 5256   7.077   0.882   6.015 -0.2687  0.5030  0.1593
   17MOL   C105 5257   7.205   0.818   6.019 -0.5481  0.4226  0.2444
   17MOL   C106 5258   7.497   0.773   5.979  0.9489  0.1983 -0.5114
   17MOL   H107 5259   7.428   0.668   5.801 -0.0763  0.9489 -0.6041
   17MOL   H108 5260   7.208   0.689   5.708 -3.0822 -3.0424 -0.4377
   17MOL   H109 5261   6.893   0.905   5.896 -0.3123  0.2668  1.5155
   17MOL   H110 5262   7.028   0.927   6.100 -2.7109 -1.5631 -0.1008
   17MOL   H111 5263   7.273   0.820   6.103  0.5458  3.1300 -0.6458
   17MOL   H112 5264   7.458   0.872   5.957 -0.4695 -0.5073 -1.2520
   17MOL   H113 5265   7.469   0.761   6.083  1.1300  0.7154 -0.4046
   17MOL   C114 5266   7.647   0.770   5.934  0.1382  0.1988  0.2258
   17MOL   C115 5267   7.672   0.770   5.779 -0.7569 -0.4484 -0.4315
   17MOL   C116 5268   7.623   0.874   5.690 -0.2964 -0.1958  0.4029
   17MOL   C117 5269   7.653   0.875   5.554 -0.3433  0.3824  0.6315
   17MOL  Cl118 5270   7.582   0.993   5.441  0.1810 -0.0667 -0.0667
   17MOL   C119 5271   7.737   0.775   5.498  0.6883 -0.3035  0.8944
   17MOL   C120 5272   7.802   0.683   5.584  0.0554 -0.6438  1.0809
   17MOL   C121 5273   7.762   0.673   5.722  1.0927  0.3886 -0.2695
   17MOL   C122 5274   7.729   0.890   5.990  0.4999  0.6954  0.0732
   17MOL   H123 5275   7.679   0.680   5.986 -0.7458 -0.8126 -0.9437
   17MOL   H124 5276   7.553   0.946   5.731  1.2775  0.6204  1.6880
   17MOL   H125 5277   7.766   0.774   5.394 -0.6611  0.7600  0.5085
   17MOL   H126 5278   7.879   0.621   5.542  1.0407  1.3487 -0.1081
   17MOL   H127 5279   7.815   0.609   5.792 -0.0697 -1.7301 -1.2788
   17MOL   H128 5280   7.705   0.980   5.933 -0.3240  0.1609 -0.4327
   17MOL   H129 5281   7.706   0.910   6.095  0.9457  0.6671  0.1785
   17MOL   C130 5282   7.887   0.887   5.979  0.4431 -0.0040 -0.7793
   17MOL   C131 5283   7.959   1.019   6.020 -0.1894  0.1791 -0.3883
   17MOL   C132 5284   7.922   1.079   6.146 -0.9569 -0.3733  0.1486
   17MOL   C133 5285   7.989   1.197   6.190 -0.5416  0.2618 -0.4116
   17MOL  Cl134 5286   7.952   1.277   6.340  0.3718 -0.0788  0.0610
   17MOL   C135 5287   8.103   1.243   6.115 -0.4221 -0.0889  0.2449
   17MOL   C136 5288   8.140   1.178   5.994  0.3047  0.2877 -0.1659
   17MOL   C137 5289   8.065   1.068   5.948 -0.4219  0.5177 -0.1858
   17MOL   C138 5290   7.951   0.764   6.061  0.3698 -0.4334 -0.0351
   17MOL   H139 5291   7.909   0.881   5.872 -2.4641 -1.3567 -1.3274
   17MOL   H140 5292   7.835   1.043   6.199 -0.9107 -0.2219  0.3249
   17MOL   H141 5293   8.160   1.328   6.148  0.8382 -0.4104 -1.0504
   17MOL   H142 5294   8.229   1.208   5.942 -0.5139  1.7167 -0.7488
   17MOL   H143 5295   8.106   1.027   5.857  0.2509  0.0960  0.3019
   17MOL   H144 5296   7.914   0.760   6.163 -0.5390  0.9899 -0.2941
   17MOL   H145 5297   7.887   0.681   6.031  0.4928 -0.4262 -0.3252
   17MOL   C146 5298   8.104   0.728   6.051  0.1311  0.7938  0.0692
   17MOL   C147 5299   8.119   0.595   6.124 -0.4937 -0.6038 -0.0526
   17MOL   C148 5300   8.189   0.585   6.250 -0.4733  0.6099 -0.5775
   17MOL   C149 5301   8.214   0.458   6.302 -0.0551 -0.2703 -1.0125
   17MOL  Cl150 5302   8.299   0.449   6.453 -0.0178 -0.1355 -0.2285
   17MOL   C151 5303   8.173   0.342   6.235 -1.0531  0.4216  0.1637
   17MOL   C152 5304   8.105   0.356   6.114 -0.3427 -0.0833  1.0612
   17MOL   C153 5305   8.077   0.476   6.059  0.0945  0.3042 -0.1135
   17MOL   C154 5306   8.150   0.719   5.902 -0.0973 -0.4931 -0.6632
   17MOL   H155 5307   8.162   0.808   6.098 -0.8002  0.2960  2.1346
   17MOL   H156 5308   8.218   0.675   6.301  0.5003  0.1901 -0.3747
   17MOL   H157 5309   8.177   0.240   6.269  0.1739  0.5665  0.4425
   17MOL   H158 5310   8.069   0.274   6.053  0.8721  0.1621 -0.0070
   17MOL   H159 5311   8.039   0.471   5.958 -1.0207 -0.3954  0.3352
   17MOL   H160 5312   8.102   0.649   5.833 -1.3207  1.6821 -2.0673
   17MOL   H161 5313   8.132   0.816   5.856 -0.4352 -0.6782 -0.9277
   17MOL   C162 5314   8.303   0.711   5.882 -0.1336  0.0084  0.0027
   17MOL   C163 5315   8.358   0.570   5.902  0.3112 -0.6866  0.3486
   17MOL   C164 5316   8.337   0.473   5.801  0.7797  0.3391 -0.1053
   17MOL   C165 5317   8.397   0.343   5.813 -0.1534  0.0286  0.1651
   17MOL  Cl166 5318   8.354   0.230   5.697 -0.0233 -0.0499  0.3603
   17MOL   C167 5319   0.040   0.312   5.924  0.0333 -0.2633 -0.6435
   17MOL   C168 5320   0.073   0.409   6.017  0.2886  0.1088 -0.1967
   17MOL   C169 5321   0.015   0.540   6.005 -0.2661  0.2823  0.0150
   17MOL   C170 5322   8.336   0.776   5.745  0.5761 -0.1778  0.4326
   17MOL   H171 5323   8.354   0.770   5.958  1.8486 -2.9448  1.0807
   17MOL   H172 5324   8.278   0.501   5.714  1.7571  1.6982 -0.3317
   17MOL   H173 5325   0.092   0.217   5.931  1.3482  0.3160 -2.1879
   17MOL   H174 5326   0.135   0.389   6.103  2.6402 -0.5359 -1.9768
   17MOL   H175 5327   0.040   0.618   6.076 -0.3942 -0.2787  0.6808
   17MOL   H176 5328   8.269   0.735   5.669  0.4121 -0.2040  0.5930
   17MOL   H177 5329   8.309   0.881   5.754  1.1713  0.0740 -0.5734
   17MOL   C178 5330   0.049   0.767   5.692 -0.1019 -0.0810 -0.0904
   17MOL   C179 5331   0.058   0.839   5.556 -0.1476  0.2065  0.9220
   17MOL   C180 5332   0.049   0.982   5.539 -0.3796  0.5119 -0.7377
   17MOL   C181 5333   0.032   1.032   5.407  0.2339  0.1144  0.3936
   17MOL  Cl182 5334   0.023   1.202   5.386 -0.1370 -0.6082 -0.0167
   17MOL   C183 5335   0.029   0.949   5.297 -0.2573  0.1273 -0.4726
   17MOL   C184 5336   0.041   0.807   5.314  0.1816 -0.0082 -0.2857
   17MOL   C185 5337   0.061   0.752   5.441 -1.0885  0.4029 -0.1327
   17MOL   C186 5338   0.161   0.806   5.794 -0.4229 -0.6584 -0.1994
   17MOL   H187 5339   0.060   0.660   5.676  3.0212  0.2586 -0.4840
   17MOL   H188 5340   0.050   1.046   5.626 -1.7832 -0.1687 -0.1937
   17MOL   H189 5341   0.007   0.989   5.200 -0.1158  0.2834 -0.4410
   17MOL   H190 5342   0.018   0.747   5.227 -0.7372 -0.2237  0.0986
   17MOL   H191 5343   0.073   0.647   5.462  0.8059  1.0713  2.3207
   17MOL   H192 5344   0.143   0.907   5.829 -2.0382 -0.8604 -0.3767
   17MOL   H193 5345   0.135   0.746   5.881  2.8274 -1.8501  0.0081
   17MOL   C194 5346   0.310   0.784   5.746  0.0471 -0.3399 -0.0954
   17MOL   C195 5347   0.402   0.790   5.868 -0.5013 -0.2725 -0.2635
   17MOL   C196 5348   0.503   0.886   5.881 -0.4980 -0.4513 -0.1443
   17MOL   C197 5349   0.574   0.899   6.004 -0.2142 -0.3338 -0.5558
   17MOL  Cl198 5350   0.689   1.021   6.029 -0.1084  0.3774  0.4383
   17MOL   C199 5351   0.541   0.810   6.108  0.5264  0.4240 -0.2461
   17MOL   C200 5352   0.447   0.705   6.093 -0.0114  0.3633 -0.4327
   17MOL   C201 5353   0.379   0.693   5.972  0.8583  0.9089  0.1542
   17MOL   C202 5354   0.324   0.636   5.690  0.0442 -0.3307 -0.4325
   17MOL   H203 5355   0.334   0.861   5.673  1.3004  2.6283  3.3089
   17MOL   H204 5356   0.533   0.947   5.797  0.0285  0.0629  0.4139
   17MOL   H205 5357   0.596   0.818   6.201  1.7343 -2.2246 -0.6782
   17MOL   H206 5358   0.438   0.636   6.175 -1.5544  0.2597 -0.6861
   17MOL   H207 5359   0.308   0.612   5.963 -0.7065  2.2738 -0.0146
   17MOL   H208 5360   0.267   0.567   5.752  0.1638 -1.3608 -1.4519
   17MOL   H209 5361   0.279   0.643   5.591 -0.6383 -0.3001 -0.1277
   17MOL   C210 5362   0.464   0.569   5.680 -0.4265 -0.2327 -0.4069
   17MOL   C211 5363   0.436   0.423   5.653 -0.0477 -0.5932  0.2872
   17MOL   C212 5364   0.468   0.321   5.747  0.2529  0.1911  0.5724
   17MOL   C213 5365   0.436   0.184   5.713 -0.1551 -0.2967  0.2638
   17MOL  Cl214 5366   0.480   0.054   5.821 -0.2543  0.3404  0.1353
   17MOL   C215 5367   0.351   0.161   5.608  0.7688  0.0910  0.8172
   17MOL   C216 5368   0.321   0.263   5.513 -0.2802 -0.0013 -0.3702
   17MOL   C217 5369   0.366   0.394   5.534  0.4298  0.1586  0.1009
   17MOL   C218 5370   0.548   0.642   5.573  0.6462 -0.1174  0.1011
   17MOL   H219 5371   0.522   0.589   5.771 -0.7850  1.4300 -0.5179
   17MOL   H220 5372   0.531   0.325   5.834  0.7777 -2.5099  0.3568
   17MOL   H221 5373   0.319   0.059   5.591  1.2854  0.1568 -0.6684
   17MOL   H222 5374   0.269   0.230   5.425 -0.1819  0.3639 -0.5678
   17MOL   H223 5375   0.339   0.478   5.472 -0.3501 -0.5066 -0.4649
   17MOL   H224 5376   0.499   0.665   5.479  0.7620  0.5482  0.2003
   17MOL   H225 5377   0.571   0.745   5.602 -2.3565  0.5138  0.4514
   17MOL   C226 5378   0.688   0.581   5.545 -0.0176 -0.2177 -0.4684
   17MOL   C227 5379   0.703   0.487   5.426 -0.8332 -0.7107  0.3813
   17MOL   C228 5380   0.700   0.348   5.449  0.0176 -0.1183 -0.2231
   17MOL   C229 5381   0.726   0.257   5.350 -0.1405 -0.1974  0.3199
   17MOL  Cl230 5382   0.724   0.091   5.389  0.1706  0.2525  0.4997
   17MOL   C231 5383   0.768   0.300   5.219  0.8508  0.3940  0.5145
   17MOL   C232 5384   0.774   0.442   5.192  0.5032 -0.1988  0.3102
   17MOL   C233 5385   0.747   0.527   5.296  0.0848  0.6936  0.1903
   17MOL   C234 5386   0.805   0.678   5.542 -0.3160  0.5670 -0.6417
   17MOL   H235 5387   0.709   0.513   5.627  1.0457  0.7082  0.0363
   17MOL   H236 5388   0.667   0.317   5.548 -0.5242  0.6174 -0.1681
   17MOL   H237 5389   0.800   0.243   5.134  0.1365  1.2627 -0.3463
   17MOL   H238 5390   0.804   0.471   5.092 -0.5562 -0.2893 -0.0397
   17MOL   H239 5391   0.740   0.634   5.280  0.6626  1.0907  2.4599
   17MOL   H240 5392   0.898   0.625   5.518  1.5492  1.8265  3.2982
   17MOL   H241 5393   0.791   0.752   5.464  2.0818 -0.3258 -1.9849
   17MOL   C242 5394   0.858   0.760   5.675 -0.5704  0.2176 -0.7896
   17MOL   C243 5395   0.898   0.666   5.781 -0.5016  0.2051 -0.1346
   17MOL   C244 5396   0.836   0.670   5.903 -0.1968  0.0534  0.1646
   17MOL   C245 5397   0.868   0.578   6.000 -0.7519  0.1269 -0.4478
   17MOL  Cl246 5398   0.802   0.587   6.166  0.3389  0.2726  0.2407
   17MOL   C247 5399   0.962   0.477   5.979 -0.0746  0.0331  0.2778
   17MOL   C248 5400   1.020   0.461   5.851 -0.1166 -0.3153  0.3818
   17MOL   C249 5401   0.990   0.559   5.757 -0.1867 -0.4243 -0.7026
   17MOL   C250 5402   0.978   0.851   5.633  0.1802 -0.3585 -0.7111
   17MOL   H251 5403   0.776   0.816   5.720 -1.9024 -2.7075  0.5619
   17MOL   H252 5404   0.762   0.746   5.924 -0.9224 -0.4620 -0.5077
   17MOL   H253 5405   0.967   0.399   6.054  0.9181  0.0708  0.2512
   17MOL   H254 5406   1.078   0.371   5.837  2.1750  1.1724  0.1945
   17MOL   H255 5407   1.041   0.548   5.662  0.9257 -2.3383  0.0857
   17MOL   H256 5408   1.064   0.786   5.622 -1.6296 -3.1368  0.9503
   17MOL   H257 5409   0.950   0.892   5.536 -0.7512 -0.9708 -0.7089
   17MOL   C258 5410   1.000   0.958   5.734 -0.3682 -1.0456 -0.5041
   17MOL   C259 5411   1.128   1.034   5.706 -0.2789  0.7689  0.5456
   17MOL   C260 5412   1.195   1.028   5.578  0.7395 -0.4856  0.1592
   17MOL   C261 5413   1.309   1.098   5.564 -0.6224  0.3728 -0.5253
   17MOL  Cl262 5414   1.383   1.083   5.410 -0.0921 -0.3560  0.3667
   17MOL   C263 5415   1.364   1.180   5.660 -0.1855  0.8538 -0.5803
   17MOL   C264 5416   1.301   1.177   5.783 -0.0322 -0.3983 -0.4573
   17MOL   C265 5417   1.183   1.102   5.809 -1.1047  0.4537  0.0474
   17MOL   C266 5418   0.891   1.065   5.763 -0.2492 -0.3737 -0.1889
   17MOL   H267 5419   1.013   0.911   5.831 -0.0523 -1.1732 -0.6064
   17MOL   H268 5420   1.155   0.970   5.496  1.9646 -1.4465  0.2311
   17MOL   H269 5421   1.453   1.241   5.656  0.7887 -0.3717  1.7127
   17MOL   H270 5422   1.339   1.244   5.859  2.8483 -2.4907  0.0290
   17MOL   H271 5423   1.137   1.114   5.906  0.2622  1.6665  0.5655
   17MOL   H272 5424   0.793   1.018   5.766 -1.3522  1.5054 -3.8754
   17MOL   H273 5425   0.911   1.115   5.857 -0.0955 -1.8161  0.5493
   17MOL   C274 5426   0.882   1.186   5.656 -0.1888  0.2779  0.2426
   17MOL   C275 5427   0.857   1.156   5.501  0.7166 -0.0859 -0.3255
   17MOL   C276 5428   0.761   1.065   5.460  0.2343 -0.1583 -0.7951
   17MOL   C277 5429   0.743   1.032   5.322  0.1607  0.6305  0.4570
   17MOL  Cl278 5430   0.631   0.902   5.287  0.2434  0.1180  0.1289
   17MOL   C279 5431   0.819   1.101   5.220 -0.5484  0.1436 -0.3640
   17MOL   C280 5432   0.896   1.204   5.265 -0.2549 -0.3288  0.4738
   17MOL   C281 5433   0.922   1.227   5.400 -0.3612  0.2844  0.7359
   17MOL   C282 5434   0.773   1.288   5.704 -0.5388 -1.1057  0.4802
   17MOL   H283 5435   0.982   1.228   5.666 -0.2548  0.1748  1.4908
   17MOL   H284 5436   0.700   1.021   5.538  1.1960 -0.7306 -0.3704
   17MOL   H285 5437   0.805   1.078   5.116 -1.1849 -1.3517  0.0359
   17MOL   H286 5438   0.954   1.263   5.195  0.4065 -0.1526  1.1657
   17MOL   H287 5439   0.988   1.307   5.431  2.1140 -0.9257 -1.2416
   17MOL   H288 5440   0.752   1.364   5.629 -1.5907 -1.3348  0.5278
   17MOL   H289 5441   0.679   1.233   5.712 -0.3027 -1.2776  2.3067
   17MOL   C290 5442   0.795   1.366   5.835  0.6259  0.0871  0.3280
   17MOL   C291 5443   0.934   1.417   5.853 -0.1821 -0.2778  0.4098
   17MOL   C292 5444   1.017   1.360   5.950 -0.2641  0.5663  0.0361
   17MOL   C293 5445   1.142   1.419   5.978 -0.1889 -0.2084 -0.4802
   17MOL  Cl294 5446   1.236   1.362   6.107 -0.2766 -0.0893 -0.2061
   17MOL   C295 5447   1.183   1.537   5.909  0.0912  1.3233  0.0425
   17MOL   C296 5448   1.101   1.591   5.810  0.5493 -0.5337 -0.0173
   17MOL   C297 5449   0.982   1.527   5.775 -0.1494 -0.6720  0.3694
   17MOL   C298 5450   0.692   1.481   5.843 -0.4438  0.1566 -0.1574
   17MOL   H299 5451   0.775   1.300   5.919  0.8302 -3.3355 -2.2017
   17MOL   H300 5452   0.978   1.281   6.012 -1.5043  0.8087 -0.4183
   17MOL   H301 5453   1.283   1.567   5.937  0.6047 -1.2290  1.0457
   17MOL   H302 5454   1.123   1.682   5.756 -0.6051 -0.6687 -0.7391
   17MOL   H303 5455   0.931   1.573   5.692 -1.4948 -0.9219  1.0508
   17MOL   H304 5456   0.711   1.548   5.928  1.4590 -1.4002  0.7021
   17MOL   H305 5457   0.699   1.536   5.750  1.0858 -0.1815 -0.2688
   17MOL   C306 5458   0.534   1.448   5.855  0.5118  0.3669 -0.0497
   17MOL   C307 5459   0.497   1.356   5.970  0.4281 -0.3075  0.4565
   17MOL   C308 5460   0.525   1.392   6.105 -0.1631  0.3199  0.1769
   17MOL   C309 5461   0.479   1.308   6.209  0.5111  0.1774 -0.0317
   17MOL  Cl310 5462   0.523   1.344   6.374  0.1939 -0.4006 -0.7127
   17MOL   C311 5463   0.415   1.189   6.181  0.2576  0.0700  0.1257
   17MOL   C312 5464   0.376   1.154   6.049  0.2779  0.4946 -0.0598
   17MOL   C313 5465   0.421   1.240   5.945  0.1909 -0.5884  0.3429
   17MOL   C314 5466   0.442   1.570   5.861  0.0675 -0.6611 -0.1633
   17MOL   H315 5467   0.506   1.393   5.766  1.0873 -1.3942  0.8376
   17MOL   H316 5468   0.590   1.475   6.129 -1.4433  0.5311  3.1290
   17MOL   H317 5469   0.400   1.127   6.268  0.0823 -0.4093 -0.2415
   17MOL   H318 5470   0.318   1.064   6.036 -0.1164  0.4996  1.5762
   17MOL   H319 5471   0.413   1.211   5.841  0.8770 -1.0423  0.4132
   17MOL   H320 5472   0.442   1.612   5.961  0.5808 -2.6164  0.6771
   17MOL   H321 5473   0.469   1.659   5.804  1.1676 -0.1998  1.0594
   17MOL   H322 5474   0.341   1.532   5.846 -0.7396  1.3190  0.1492
   18MOL     C1 5475   6.151   0.486   5.587 -0.6300  0.0648 -0.3203
   18MOL     C2 5476   6.009   0.435   5.610  0.4749 -0.0744  0.2632
   18MOL     C3 5477   5.900   0.517   5.564 -0.1752  0.1587 -0.3319
   18MOL     C4 5478   5.767   0.476   5.585 -0.2133 -1.0735  0.4895
   18MOL    Cl5 5479   5.633   0.564   5.529 -0.2428  0.3198  0.3907
   18MOL     C6 5480   5.744   0.346   5.636  1.0384  0.7054 -0.4889
   18MOL     C7 5481   5.850   0.266   5.681  0.4546 -0.5842  0.0280
   18MOL     C8 5482   5.980   0.311   5.667  0.3539 -0.2255 -0.5435
   18MOL     C9 5483   6.192   0.531   5.447 -0.7592 -0.2769 -0.4803
   18MOL    H10 5484   6.226   0.411   5.613 -1.9384 -1.2365 -0.2696
   18MOL    H11 5485   5.931   0.612   5.522  2.2686 -0.7736 -0.6831
   18MOL    H12 5486   5.645   0.304   5.623  1.2506 -0.1563  0.5991
   18MOL    H13 5487   5.829   0.165   5.713  1.6181 -0.2619  1.8742
   18MOL    H14 5488   6.053   0.242   5.706 -1.3605 -1.2870  0.8611
   18MOL    H15 5489   6.209   0.449   5.377 -0.7791 -1.9031  1.3760
   18MOL    H16 5490   6.100   0.567   5.402 -1.1392  0.7828  1.0934
   18MOL    H17 5491   6.172   0.561   5.664 -0.4598 -1.6167  1.3260
   18MOL    C18 5492   6.299   0.641   5.431 -0.0585 -0.5902  0.1602
   18MOL    C19 5493   6.436   0.583   5.470  0.7402  0.1577 -0.2083
   18MOL    C20 5494   6.520   0.517   5.376  0.0402  0.0677 -0.3167
   18MOL    C21 5495   6.654   0.479   5.404 -0.1372  0.6172  0.8350
   18MOL   Cl22 5496   6.746   0.401   5.291 -0.3640  0.1593 -0.1774
   18MOL    C23 5497   6.704   0.523   5.534 -0.1260 -0.1926  1.0159
   18MOL    C24 5498   6.616   0.582   5.627 -0.2486  0.5512 -0.2054
   18MOL    C25 5499   6.485   0.603   5.598 -0.3451  0.3157 -0.0502
   18MOL    C26 5500   6.305   0.705   5.288 -0.0981 -0.3519 -0.5628
   18MOL    H27 5501   6.284   0.715   5.510  0.1157 -1.1492  0.7265
   18MOL    H28 5502   6.482   0.498   5.277  0.4761 -2.1871 -0.0887
   18MOL    H29 5503   6.809   0.510   5.556  0.3321 -0.3214 -1.0704
   18MOL    H30 5504   6.647   0.609   5.727 -1.1105 -1.5454  0.6477
   18MOL    H31 5505   6.422   0.644   5.675 -0.5611 -0.0675 -0.0242
   18MOL    H32 5506   6.312   0.623   5.216  1.8257 -0.3231 -0.4284
   18MOL    H33 5507   6.202   0.734   5.271  0.0893  0.6628  0.0177
   18MOL    C34 5508   6.402   0.827   5.285  0.7516  0.4002  0.9005
   18MOL    C35 5509   6.459   0.830   5.153 -0.5135 -0.5281 -0.2557
   18MOL    C36 5510   6.601   0.824   5.132  0.5660  0.4859 -0.7315
   18MOL    C37 5511   6.650   0.839   5.001  0.1687  0.0422  0.3295
   18MOL   Cl38 5512   6.812   0.819   4.969  0.1570 -0.0599  0.0390
   18MOL    C39 5513   6.567   0.853   4.890  1.0363  0.5649 -0.4378
   18MOL    C40 5514   6.433   0.864   4.914  0.4820 -0.3066 -0.0408
   18MOL    C41 5515   6.373   0.857   5.040  0.0438  0.0367 -0.3643
   18MOL    C42 5516   6.324   0.956   5.329  0.0016  0.3027  0.0035
   18MOL    H43 5517   6.472   0.815   5.368 -0.3564 -0.8827  1.6696
   18MOL    H44 5518   6.669   0.802   5.213 -1.4903  2.4494  1.6232
   18MOL    H45 5519   6.607   0.848   4.789  0.7580  0.1472 -0.5295
   18MOL    H46 5520   6.364   0.876   4.832 -0.7938 -3.7353  0.4181
   18MOL    H47 5521   6.269   0.874   5.063 -0.5556 -2.6429 -0.8957
   18MOL    H48 5522   6.263   1.003   5.252  1.5086  1.5724 -0.4351
   18MOL    H49 5523   6.249   0.923   5.401 -0.1008  1.6587  0.5380
   18MOL    C50 5524   6.428   1.060   5.400  0.3541  0.1479  0.0424
   18MOL    C51 5525   6.385   1.199   5.376 -0.2024  0.2440 -0.2901
   18MOL    C52 5526   6.485   1.287   5.332 -0.2836 -0.7582  0.2818
   18MOL    C53 5527   6.450   1.422   5.316  0.1964  0.4531  0.1101
   18MOL   Cl54 5528   6.565   1.545   5.267 -0.1868  0.0336  0.0933
   18MOL    C55 5529   6.321   1.461   5.353 -0.4033  0.0761 -0.6577
   18MOL    C56 5530   6.222   1.366   5.393 -0.0919  0.0273 -0.0426
   18MOL    C57 5531   6.259   1.231   5.412  0.5255  0.6025 -0.0215
   18MOL    C58 5532   6.450   1.034   5.550  0.0891  0.0803  0.5589
   18MOL    H59 5533   6.520   1.042   5.343  1.1292  1.7828  0.7549
   18MOL    H60 5534   6.582   1.254   5.296 -0.8655 -0.9086 -1.2148
   18MOL    H61 5535   6.304   1.567   5.344  0.0962  0.3673  1.5504
   18MOL    H62 5536   6.128   1.406   5.428  0.7661  1.3265  0.8359
   18MOL    H63 5537   6.194   1.150   5.444  2.2656 -0.5614  0.6167
   18MOL    H64 5538   6.353   1.058   5.593 -1.3070  0.3878 -2.6755
   18MOL    H65 5539   6.462   0.927   5.568 -2.9458  0.0230  2.6917
   18MOL    C66 5540   6.550   1.115   5.632  0.1098 -0.8401 -0.2428
   18MOL    C67 5541   6.515   1.113   5.780 -0.3030  0.3531  0.1717
   18MOL    C68 5542   6.536   0.992   5.855 -0.0599  0.1411  0.1688
   18MOL    C69 5543   6.510   0.992   5.992  0.0744  0.0402  0.3399
   18MOL   Cl70 5544   6.534   0.851   6.082  0.0941  0.3066 -0.1894
   18MOL    C71 5545   6.445   1.103   6.052 -0.1125 -0.2196  0.8835
   18MOL    C72 5546   6.430   1.229   5.982  0.6120  0.0281 -0.1059
   18MOL    C73 5547   6.462   1.232   5.843  0.0042 -0.3718 -0.5598
   18MOL    C74 5548   6.699   1.089   5.604  0.0235 -0.1356 -0.3341
   18MOL    H75 5549   6.540   1.218   5.598 -1.1973 -0.9466 -0.2019
   18MOL    H76 5550   6.583   0.906   5.808  0.9113  1.9091 -2.2090
   18MOL    H77 5551   6.428   1.094   6.159 -0.2918  1.6041  1.0304
   18MOL    H78 5552   6.402   1.315   6.041  1.2664  0.2452 -0.1082
   18MOL    H79 5553   6.444   1.326   5.792  0.2842  0.6048  1.0815
   18MOL    H80 5554   6.730   1.010   5.671  0.3210  1.7970  1.8715
   18MOL    H81 5555   6.707   1.037   5.508  1.3687 -2.3520  0.9493
   18MOL    C82 5556   6.793   1.211   5.609  0.1277 -0.0093 -0.2785
   18MOL    C83 5557   6.777   1.297   5.738  0.7919  0.8502 -0.2859
   18MOL    C84 5558   6.796   1.239   5.868  0.1818  0.8668 -0.5347
   18MOL    C85 5559   6.780   1.318   5.981  0.0512 -0.2182 -0.2075
   18MOL   Cl86 5560   6.803   1.245   6.132 -0.2291  0.1973 -0.2320
   18MOL    C87 5561   6.738   1.455   5.966  0.2498  0.0505  0.5787
   18MOL    C88 5562   6.729   1.508   5.837 -0.4139  0.9168 -0.2299
   18MOL    C89 5563   6.749   1.431   5.725 -0.2950 -0.1652 -0.5172
   18MOL    C90 5564   6.942   1.165   5.600  0.9129  0.4547 -0.3294
   18MOL    H91 5565   6.768   1.274   5.523  1.1111 -2.5895 -2.5450
   18MOL    H92 5566   6.827   1.139   5.892 -0.2960  0.7571 -0.3645
   18MOL    H93 5567   6.731   1.510   6.058  3.4537 -1.0462  1.5430
   18MOL    H94 5568   6.694   1.610   5.833 -0.3075  0.9253 -1.0046
   18MOL    H95 5569   6.734   1.478   5.629  1.8726  0.8955 -0.3492
   18MOL    H96 5570   7.005   1.243   5.644 -1.0008  0.7515  2.0208
   18MOL    H97 5571   6.953   1.088   5.677 -0.2930 -0.0118 -0.6101
   18MOL    C98 5572   6.986   1.103   5.462  0.5592  0.2820 -0.0031
   18MOL    C99 5573   6.959   1.199   5.343 -0.3906  0.1941  0.0305
   18MOL   C100 5574   6.857   1.181   5.249  0.5822 -0.3524 -0.4274
   18MOL   C101 5575   6.823   1.285   5.157 -0.6074  0.6071 -0.1762
   18MOL  Cl102 5576   6.688   1.270   5.048 -0.1457  0.0729 -0.3036
   18MOL   C103 5577   6.890   1.411   5.160 -0.1762  0.6306 -0.0922
   18MOL   C104 5578   6.998   1.422   5.247  0.2330  0.4894 -0.1090
   18MOL   C105 5579   7.026   1.328   5.341 -0.4182  0.4058 -0.3310
   18MOL   C106 5580   7.136   1.070   5.467 -0.4670  0.3953  0.1461
   18MOL   H107 5581   6.923   1.016   5.444 -0.4910  1.2999 -1.3425
   18MOL   H108 5582   6.792   1.095   5.245  0.7569 -0.4413 -1.4655
   18MOL   H109 5583   6.859   1.490   5.093  2.0621  1.9161  0.3329
   18MOL   H110 5584   7.048   1.518   5.258  1.3972 -0.1406  0.1401
   18MOL   H111 5585   7.097   1.363   5.414 -0.4233  0.9883 -0.6028
   18MOL   H112 5586   7.195   1.161   5.462  0.2112 -0.0892 -0.6926
   18MOL   H113 5587   7.165   1.022   5.561  1.3268  0.4615 -0.3626
   18MOL   C114 5588   7.196   0.989   5.352 -0.3827  0.1986  0.0444
   18MOL   C115 5589   7.139   0.844   5.362 -0.2323  0.0426 -0.3020
   18MOL   C116 5590   7.213   0.743   5.426 -0.5637  0.1911 -0.8115
   18MOL   C117 5591   7.162   0.609   5.426  0.0875 -0.2466  0.6370
   18MOL  Cl118 5592   7.241   0.470   5.503 -0.3214 -0.3813 -0.2379
   18MOL   C119 5593   7.042   0.582   5.359  0.1260 -0.2086  0.2486
   18MOL   C120 5594   6.975   0.680   5.288  0.0348 -0.1969 -0.4251
   18MOL   C121 5595   7.030   0.811   5.280 -0.7536 -0.8852 -0.9125
   18MOL   C122 5596   7.221   1.049   5.210  0.0316 -0.2740 -0.9919
   18MOL   H123 5597   7.301   0.988   5.380 -0.3895  2.2613  0.1498
   18MOL   H124 5598   7.300   0.755   5.490 -1.8027  0.8752  0.7565
   18MOL   H125 5599   7.019   0.476   5.354 -1.3293  0.1837 -2.5611
   18MOL   H126 5600   6.900   0.651   5.216 -0.9473 -0.1422  0.5703
   18MOL   H127 5601   6.984   0.885   5.218  1.2670 -1.7528 -3.5719
   18MOL   H128 5602   7.127   1.045   5.154 -0.3829  0.6324 -0.3648
   18MOL   H129 5603   7.230   1.157   5.221  1.3977 -0.4411 -0.3553
   18MOL   C130 5604   7.349   0.999   5.139 -0.5086  0.5723 -0.0301
   18MOL   C131 5605   7.340   0.849   5.102  0.6535  0.5768 -0.2885
   18MOL   C132 5606   7.416   0.760   5.186 -0.3711 -0.2077  0.6887
   18MOL   C133 5607   7.415   0.626   5.154 -0.2407  0.6908 -0.4062
   18MOL  Cl134 5608   7.534   0.532   5.235 -0.2504 -0.0456 -0.1003
   18MOL   C135 5609   7.322   0.574   5.061 -0.1509  0.2215  0.3413
   18MOL   C136 5610   7.239   0.662   4.993  0.0320  0.0097 -0.5063
   18MOL   C137 5611   7.249   0.799   5.006 -0.3975 -0.5026 -0.7792
   18MOL   C138 5612   7.379   1.092   5.017 -0.4007  0.4802  0.0384
   18MOL   H139 5613   7.429   1.016   5.210 -1.7319 -0.4987  1.6451
   18MOL   H140 5614   7.482   0.803   5.260 -0.2870  2.1986 -0.7205
   18MOL   H141 5615   7.296   0.469   5.049 -1.4082  0.4493  0.9989
   18MOL   H142 5616   7.173   0.619   4.918  0.2402 -2.3349  0.5998
   18MOL   H143 5617   7.174   0.860   4.958 -2.2444 -1.8715  0.2805
   18MOL   H144 5618   7.294   1.085   4.949 -0.2139 -0.3292 -0.1115
   18MOL   H145 5619   7.358   1.198   5.033  2.0526  1.0883 -0.6651
   18MOL   C146 5620   7.522   1.083   4.953 -0.6959  0.4646 -0.1613
   18MOL   C147 5621   7.527   1.151   4.818 -0.4391 -0.2623  0.2826
   18MOL   C148 5622   7.517   1.295   4.822 -0.6180 -0.1941  0.6358
   18MOL   C149 5623   7.535   1.362   4.696  0.7345 -0.0434  0.6955
   18MOL  Cl150 5624   7.536   1.537   4.695  0.1381 -0.1592  0.2316
   18MOL   C151 5625   7.554   1.288   4.577  0.1243  0.3371  0.4053
   18MOL   C152 5626   7.560   1.147   4.573 -0.0335 -1.3246  0.5155
   18MOL   C153 5627   7.541   1.075   4.698  0.5186  0.0788  0.9832
   18MOL   C154 5628   7.643   1.116   5.048  0.7257 -0.0570  0.4153
   18MOL   H155 5629   7.533   0.976   4.936  0.2094  0.5520 -0.1295
   18MOL   H156 5630   7.522   1.358   4.909 -0.4193  0.2347  0.3186
   18MOL   H157 5631   7.567   1.351   4.490 -3.3923 -0.0853 -0.5070
   18MOL   H158 5632   7.566   1.101   4.475 -3.7549 -3.5634  1.2465
   18MOL   H159 5633   7.545   0.968   4.707  0.0653  0.1703  2.4102
   18MOL   H160 5634   7.646   1.222   5.073  3.5011 -0.2407  0.9993
   18MOL   H161 5635   7.626   1.062   5.141  1.0255 -0.9284 -0.0306
   18MOL   C162 5636   7.785   1.077   5.000  0.2980 -0.6098  0.5232
   18MOL   C163 5637   7.878   1.119   5.118  0.0101  0.2067 -0.0029
   18MOL   C164 5638   7.882   1.045   5.236 -0.2748 -0.1950  0.2334
   18MOL   C165 5639   7.976   1.077   5.330 -0.3581  0.5968 -0.0596
   18MOL  Cl166 5640   7.992   1.007   5.490  0.3226 -0.3503  0.1814
   18MOL   C167 5641   8.068   1.181   5.303  0.2234 -0.7749  0.5917
   18MOL   C168 5642   8.066   1.251   5.184  0.5750  0.1194  0.5752
   18MOL   C169 5643   7.963   1.225   5.095 -0.2274  0.7341 -0.8182
   18MOL   C170 5644   7.791   0.929   4.972 -0.0301 -0.3501  0.7730
   18MOL   H171 5645   7.807   1.118   4.902 -0.7349 -2.8919 -0.7117
   18MOL   H172 5646   7.822   0.958   5.259  0.3483 -1.1798 -1.7454
   18MOL   H173 5647   8.151   1.206   5.367 -0.7968  3.5593  0.4056
   18MOL   H174 5648   8.135   1.330   5.160 -0.8434  1.6548  1.4763
   18MOL   H175 5649   7.951   1.287   5.008  0.5058  1.6083 -0.3094
   18MOL   H176 5650   7.726   0.875   5.041  0.7962 -0.8045  1.1949
   18MOL   H177 5651   7.742   0.914   4.876 -1.1029 -2.3628  1.6080
   18MOL   C178 5652   7.928   0.860   4.949  0.0925  0.0589  0.1862
   18MOL   C179 5653   7.924   0.725   5.021  0.3251  0.3269 -0.0416
   18MOL   C180 5654   8.015   0.698   5.123 -0.4272 -0.2902 -0.8526
   18MOL   C181 5655   8.009   0.576   5.199 -0.0719  0.2832  0.0211
   18MOL  Cl182 5656   8.126   0.550   5.320  0.0811  0.1728  0.0776
   18MOL   C183 5657   7.913   0.483   5.167 -0.5084  0.7973 -0.3806
   18MOL   C184 5658   7.820   0.508   5.059  0.1523 -0.5709 -0.8399
   18MOL   C185 5659   7.829   0.627   4.991 -0.1226  0.0517  0.8703
   18MOL   C186 5660   7.974   0.852   4.801  0.4410  0.0261  0.3444
   18MOL   H187 5661   7.998   0.921   5.006  1.3830 -1.0709 -0.1607
   18MOL   H188 5662   8.089   0.773   5.148  0.8602 -1.8470  0.1143
   18MOL   H189 5663   7.895   0.396   5.229  1.8416  0.8392  0.3805
   18MOL   H190 5664   7.743   0.442   5.023 -0.3831  0.4773 -1.6652
   18MOL   H191 5665   7.761   0.652   4.911  1.5285 -1.3262 -1.0111
   18MOL   H192 5666   8.054   0.778   4.799  0.7054  0.3159  0.1596
   18MOL   H193 5667   7.890   0.812   4.745  0.6392  2.4630 -1.7824
   18MOL   C194 5668   8.040   0.976   4.739  0.3315 -0.2497 -0.4183
   18MOL   C195 5669   8.170   1.018   4.812  0.4323  0.7149 -0.6475
   18MOL   C196 5670   8.189   1.153   4.845  0.5695 -0.1542 -0.2437
   18MOL   C197 5671   8.299   1.194   4.917  0.1810 -0.5858 -0.0931
   18MOL  Cl198 5672   8.316   1.362   4.957 -0.0823 -0.3643 -0.1145
   18MOL   C199 5673   8.407   1.097   4.945  0.6745  0.0770  0.2322
   18MOL   C200 5674   8.391   0.961   4.903 -0.5300  0.2804 -0.4578
   18MOL   C201 5675   8.269   0.921   4.847 -0.4278 -0.4435  0.3640
   18MOL   C202 5676   8.070   0.955   4.593 -0.1136  0.7622 -0.4804
   18MOL   H203 5677   7.960   1.049   4.752  0.9300 -0.0493  2.4120
   18MOL   H204 5678   8.110   1.223   4.823  1.5714  1.1097  0.1096
   18MOL   H205 5679   0.065   1.134   4.984  1.2385  0.1449 -1.1545
   18MOL   H206 5680   0.037   0.893   4.922 -0.6336  0.0372 -0.8685
   18MOL   H207 5681   8.266   0.815   4.830 -1.1797 -0.0174 -2.3625
   18MOL   H208 5682   8.151   1.023   4.569  0.5920 -0.1300 -0.6676
   18MOL   H209 5683   8.115   0.855   4.596 -0.0426  0.8146  0.8552
   18MOL   C210 5684   7.949   0.982   4.506  0.5168  0.5316 -0.0129
   18MOL   C211 5685   7.932   1.132   4.467  0.4790  0.7406  0.0680
   18MOL   C212 5686   7.988   1.178   4.344 -0.0232  0.2018 -0.6466
   18MOL   C213 5687   7.971   1.313   4.306  0.6597 -0.5318  0.2244
   18MOL  Cl214 5688   8.011   1.359   4.144 -0.1737 -0.1781 -0.0389
   18MOL   C215 5689   7.903   1.394   4.394 -0.6362  0.1038 -0.4643
   18MOL   C216 5690   7.856   1.351   4.520  0.4235 -0.2673 -0.2390
   18MOL   C217 5691   7.861   1.213   4.550 -0.0036 -0.9563 -0.3068
   18MOL   C218 5692   7.950   0.889   4.387 -0.2250 -0.6408  0.2079
   18MOL   H219 5693   7.860   0.952   4.562 -0.9469  0.8887 -2.0997
   18MOL   H220 5694   8.046   1.115   4.278  0.0095 -4.2945  3.4147
   18MOL   H221 5695   7.890   1.499   4.373  1.8298  0.3311 -0.9619
   18MOL   H222 5696   7.806   1.424   4.582 -0.9129 -0.8171 -0.6504
   18MOL   H223 5697   7.814   1.180   4.642 -0.8002 -1.6578 -0.9554
   18MOL   H224 5698   7.871   0.920   4.319 -0.0391 -1.6795 -0.5006
   18MOL   H225 5699   8.051   0.897   4.347  0.3352 -3.6460  0.9305
   18MOL   C226 5700   7.919   0.741   4.419  0.2133  0.1133 -0.1565
   18MOL   C227 5701   7.782   0.704   4.475  0.1143 -0.5548  0.7581
   18MOL   C228 5702   7.767   0.600   4.574 -0.4021 -0.2914  0.2180
   18MOL   C229 5703   7.638   0.576   4.631  0.1858 -0.0388 -0.0250
   18MOL  Cl230 5704   7.615   0.465   4.753  0.0554 -0.0334 -0.2745
   18MOL   C231 5705   7.524   0.640   4.576 -0.1015 -0.3346  0.0518
   18MOL   C232 5706   7.536   0.727   4.463  0.3152  0.8745 -0.2539
   18MOL   C233 5707   7.669   0.759   4.418 -0.2463 -0.0608  0.8468
   18MOL   C234 5708   7.955   0.654   4.293 -0.2285 -0.2650  0.5048
   18MOL   H235 5709   7.998   0.709   4.487  0.7820 -0.0012 -0.8748
   18MOL   H236 5710   7.852   0.553   4.621 -1.5547 -1.0369  1.6038
   18MOL   H237 5711   7.431   0.619   4.628  0.7910 -0.1788  1.7407
   18MOL   H238 5712   7.450   0.761   4.407  1.0830  2.5089 -0.4651
   18MOL   H239 5713   7.673   0.822   4.330 -2.2291  0.2355  0.9478
   18MOL   H240 5714   7.885   0.688   4.218  0.2146 -0.7469 -0.1312
   18MOL   H241 5715   8.049   0.684   4.247 -0.0009  2.4619  2.6092
   18MOL   C242 5716   7.952   0.505   4.309  0.9128 -0.0798 -0.3702
   18MOL   C243 5717   7.862   0.443   4.198 -1.2489  0.2287 -0.4578
   18MOL   C244 5718   7.915   0.415   4.073  0.2760 -0.8769  0.6751
   18MOL   C245 5719   7.834   0.368   3.971  0.1417  0.6566  0.9164
   18MOL  Cl246 5720   7.899   0.353   3.811  0.2503 -0.1591 -0.0472
   18MOL   C247 5721   7.698   0.337   3.992  0.2077 -0.0799  0.1966
   18MOL   C248 5722   7.644   0.365   4.122 -0.4504  0.1629  0.2949
   18MOL   C249 5723   7.725   0.416   4.220 -0.4533  0.2685  0.1372
   18MOL   C250 5724   8.101   0.452   4.296 -0.0717 -0.5433  0.3911
   18MOL   H251 5725   7.918   0.477   4.409  1.5310  1.3833  0.2607
   18MOL   H252 5726   8.015   0.444   4.043  0.1187 -1.5205 -0.5100
   18MOL   H253 5727   7.635   0.297   3.914 -0.5249  0.2543  0.6134
   18MOL   H254 5728   7.538   0.350   4.137 -0.8790  0.6688 -1.9677
   18MOL   H255 5729   7.675   0.444   4.312 -0.4873  0.6923 -0.0116
   18MOL   H256 5730   8.094   0.347   4.266  0.4750 -0.1915 -1.0071
   18MOL   H257 5731   8.151   0.502   4.214  2.3828 -0.8576  1.6619
   18MOL   C258 5732   8.192   0.470   4.427  0.4469  0.0537  0.0568
   18MOL   C259 5733   8.134   0.456   4.571 -0.7021  0.7365 -0.1055
   18MOL   C260 5734   8.063   0.338   4.593 -0.2140 -0.5866  0.7158
   18MOL   C261 5735   8.037   0.301   4.728 -0.7576  0.2461 -0.2271
   18MOL  Cl262 5736   7.941   0.159   4.765 -0.0232  0.0060  0.6829
   18MOL   C263 5737   8.081   0.382   4.835 -0.1192  0.1078  0.1034
   18MOL   C264 5738   8.149   0.501   4.805  1.2452  0.5293 -1.1911
   18MOL   C265 5739   8.177   0.545   4.678  0.1091 -0.1168  0.3297
   18MOL   C266 5740   8.321   0.389   4.423  1.3148 -0.0810  0.1110
   18MOL   H267 5741   8.217   0.575   4.416  1.4251 -0.0462  1.1932
   18MOL   H268 5742   8.020   0.275   4.516 -2.7243  0.2770  1.3593
   18MOL   H269 5743   8.063   0.369   4.940  0.4618  1.3358  0.3691
   18MOL   H270 5744   8.168   0.568   4.888  0.4291 -0.3590 -0.2663
   18MOL   H271 5745   8.233   0.636   4.661 -0.1987  0.1848  0.8993
   18MOL   H272 5746   8.364   0.395   4.523 -1.1701  1.1649  1.1688
   18MOL   H273 5747   8.282   0.287   4.413 -0.5810  0.7281 -1.0744
   18MOL   C274 5748   8.426   0.418   4.315 -0.1298  0.5562 -0.2004
   18MOL   C275 5749   0.069   0.546   4.314  0.0298  1.4697 -0.1531
   18MOL   C276 5750   0.173   0.564   4.412 -0.0706 -0.3737 -0.2445
   18MOL   C277 5751   0.242   0.687   4.418  0.0512 -0.2162  0.8588
   18MOL  Cl278 5752   0.372   0.712   4.517  0.4581 -0.4158 -0.3297
   18MOL   C279 5753   0.207   0.790   4.321  0.3109  0.1549  0.4862
   18MOL   C280 5754   0.108   0.765   4.221  0.7521  0.4240 -0.1073
   18MOL   C281 5755   0.040   0.640   4.218 -0.6425 -0.5173 -0.1023
   18MOL   C282 5756   0.091   0.297   4.318  0.1519 -0.2006  0.2669
   18MOL   H283 5757   8.375   0.409   4.219  0.1725 -1.8314 -0.1632
   18MOL   H284 5758   0.199   0.482   4.478 -0.5531  1.0585  1.7952
   18MOL   H285 5759   0.261   0.883   4.326  1.7466 -0.7693  3.0356
   18MOL   H286 5760   0.080   0.842   4.151  0.1503 -0.3968 -0.7723
   18MOL   H287 5761   8.389   0.642   4.154 -1.6912  0.9426  1.3307
   18MOL   H288 5762   0.178   0.317   4.255  0.2128 -1.4624 -0.0627
   18MOL   H289 5763   0.126   0.271   4.418  1.2013 -4.5463 -1.0948
   18MOL   C290 5764   0.040   0.161   4.277  0.4254  0.1861  0.8620
   18MOL   C291 5765   8.388   0.169   4.149  0.2380 -0.2397 -0.6082
   18MOL   C292 5766   8.251   0.136   4.152 -0.1173  0.2996 -0.9693
   18MOL   C293 5767   8.175   0.133   4.034 -0.1082 -0.3894  0.1062
   18MOL  Cl294 5768   8.014   0.091   4.027  0.3290 -0.0798  0.1752
   18MOL   C295 5769   8.238   0.168   3.914 -0.0103  0.3015 -0.3085
   18MOL   C296 5770   8.374   0.198   3.911  0.1407  0.1210  0.0681
   18MOL   C297 5771   0.014   0.190   4.029  0.2753 -0.2590  0.4158
   18MOL   C298 5772   0.151   0.055   4.269 -0.1385 -0.7020 -0.2564
   18MOL   H299 5773   8.405   0.130   4.354  1.3763 -1.8777  0.9271
   18MOL   H300 5774   8.211   0.096   4.244 -2.6332  1.7596 -1.3580
   18MOL   H301 5775   8.182   0.168   3.821 -1.6172 -0.6789  0.6487
   18MOL   H302 5776   8.421   0.226   3.818  0.2502  0.6144  0.2678
   18MOL   H303 5777   0.120   0.214   4.025 -0.1588  1.7356  0.5569
   18MOL   H304 5778   0.226   0.101   4.205  0.5554  0.0684  1.0759
   18MOL   H305 5779   0.203   0.035   4.363 -0.7348 -2.7130 -0.3296
   18MOL   C306 5780   0.103   8.346   4.231  0.5214  0.0622  0.1444
   18MOL   C307 5781   0.223   8.257   4.185  0.5036 -0.1108 -0.5061
   18MOL   C308 5782   0.295   8.180   4.282  0.0283 -0.9199 -0.5438
   18MOL   C309 5783   0.383   8.083   4.243 -0.5125  0.1158  0.0506
   18MOL  Cl310 5784   0.456   7.976   4.359 -0.0355  0.0280 -0.1909
   18MOL   C311 5785   0.399   8.062   4.106  0.8357 -0.3124 -0.3328
   18MOL   C312 5786   0.334   8.135   4.005  0.2168  0.6351 -0.2694
   18MOL   C313 5787   0.249   8.239   4.049 -0.2776 -0.2019  0.2680
   18MOL   C314 5788   0.009   8.287   4.329  0.2614  0.8931  1.0790
   18MOL   H315 5789   0.053   8.376   4.139 -0.8345  0.5618  1.0305
   18MOL   H316 5790   0.265   8.185   4.385  0.6108  3.1848 -0.4944
   18MOL   H317 5791   0.460   7.978   4.075  2.8527  1.8031 -2.2717
   18MOL   H318 5792   0.339   8.109   3.900 -0.5455 -1.6918  0.2373
   18MOL   H319 5793   0.194   8.288   3.970 -0.8739 -0.6041  0.4241
   18MOL   H320 5794   8.429   8.192   4.278  0.3389  2.2430 -1.5370
   18MOL   H321 5795   0.059   8.278   4.426  1.0165  0.1716  0.6140
   18MOL   H322 5796   8.351   8.341   4.348 -0.6312  0.0356 -0.7852
   19MOL     C1 5797   0.147   2.815   7.979 -0.3295  0.5335 -0.7293
   19MOL     C2 5798   0.205   2.856   8.117 -0.0994  0.3373 -0.0935
   19MOL     C3 5799   0.156   2.818   8.242  0.4844  0.3282 -0.0275
   19MOL     C4 5800   0.201   2.882   8.366  0.3421  0.0307  0.1493
   19MOL    Cl5 5801   0.109   2.841   0.074  0.5016 -0.2009  0.0408
   19MOL     C6 5802   0.302   2.975   8.360  0.3257  0.5524 -0.1987
   19MOL     C7 5803   0.362   3.004   8.240  0.7819  0.4952  0.6845
   19MOL     C8 5804   0.310   2.954   8.115  0.6913  0.0381  0.2999
   19MOL     C9 5805   0.215   2.688   7.917  0.1473 -0.4013 -0.3503
   19MOL    H10 5806   0.135   2.899   7.911 -1.3466  0.6836 -0.3752
   19MOL    H11 5807   0.077   2.745   8.238 -1.2949  2.2532 -1.2054
   19MOL    H12 5808   0.333   3.021   0.017  4.3540 -1.8114 -0.2714
   19MOL    H13 5809   0.450   3.067   8.243  0.6560  0.6768  0.5112
   19MOL    H14 5810   0.354   2.992   8.024  2.2156 -1.3202  0.4558
   19MOL    H15 5811   0.293   2.735   7.858  0.0019  0.6285  0.2766
   19MOL    H16 5812   0.251   2.628   8.001  0.6643  0.4296  0.0200
   19MOL    H17 5813   0.047   2.781   8.003  0.6816 -0.7840  1.8071
   19MOL    C18 5814   0.129   2.593   7.822 -0.6084  0.1390 -0.2148
   19MOL    C19 5815   0.073   2.652   7.699  0.4366 -0.5542  0.5363
   19MOL    C20 5816   8.376   2.698   7.695 -0.1424  0.4633  0.1029
   19MOL    C21 5817   8.315   2.751   7.580 -0.0357 -0.2159  0.5315
   19MOL   Cl22 5818   8.150   2.809   7.586 -0.6494 -0.0793  0.3600
   19MOL    C23 5819   8.395   2.762   7.463 -0.6815  0.1970 -0.0330
   19MOL    C24 5820   0.092   2.708   7.462  1.0898 -0.0055 -0.5120
   19MOL    C25 5821   0.147   2.658   7.579  0.7927 -0.5033  0.0514
   19MOL    C26 5822   0.202   2.453   7.803  0.2447  0.6611 -0.3105
   19MOL    H27 5823   0.038   2.573   7.879 -0.9130  1.0395 -0.3828
   19MOL    H28 5824   8.312   2.699   7.782  0.4632 -0.6488  0.5728
   19MOL    H29 5825   8.356   2.820   7.380  1.4401  0.9428 -0.5318
   19MOL    H30 5826   0.161   2.722   7.381  1.1949  0.1115 -0.4028
   19MOL    H31 5827   0.248   2.620   7.580  0.7680 -0.5726 -0.0181
   19MOL    H32 5828   0.290   2.480   7.744 -0.3318  1.3040 -0.8710
   19MOL    H33 5829   0.240   2.420   7.900  1.7763  0.9235 -0.8037
   19MOL    C34 5830   0.135   2.338   7.718  0.3932  0.5868  0.1787
   19MOL    C35 5831   0.229   2.285   7.606 -0.2433 -0.2506 -0.3768
   19MOL    C36 5832   0.223   2.339   7.471 -0.0662  0.7717 -0.3898
   19MOL    C37 5833   0.316   2.311   7.372  0.0629 -0.5160 -0.6954
   19MOL   Cl38 5834   0.294   2.375   7.216  0.0285 -0.1302  0.0973
   19MOL    C39 5835   0.414   2.215   7.396  0.3576 -0.5154  0.7014
   19MOL    C40 5836   0.414   2.143   7.517 -0.3345 -0.1167 -0.1176
   19MOL    C41 5837   0.322   2.178   7.622  0.0467 -0.5372  0.0677
   19MOL    C42 5838   0.070   2.231   7.801 -0.3283  0.6977  0.1519
   19MOL    H43 5839   0.060   2.394   7.662 -0.2317 -2.8873 -2.6060
   19MOL    H44 5840   0.152   2.420   7.459  2.4621  3.1733  0.3537
   19MOL    H45 5841   0.483   2.191   7.316  0.4411  0.6534  0.4128
   19MOL    H46 5842   0.488   2.065   7.522  1.0125  0.8545 -3.4595
   19MOL    H47 5843   0.339   2.136   7.719 -2.9088  1.4945  1.5529
   19MOL    H48 5844   0.064   2.140   7.741 -0.8717  0.2520  0.8728
   19MOL    H49 5845   0.133   2.199   7.883  0.3516 -0.1342 -0.6848
   19MOL    C50 5846   8.365   2.267   7.854  0.3868 -0.3292 -0.4099
   19MOL    C51 5847   8.262   2.323   7.764  0.2097  0.3224  0.0968
   19MOL    C52 5848   8.168   2.409   7.821  0.1836 -0.2037 -0.4791
   19MOL    C53 5849   8.069   2.470   7.744  0.3051  0.7494  0.5537
   19MOL   Cl54 5850   7.985   2.610   7.808  0.1000  0.3498  0.4287
   19MOL    C55 5851   8.054   2.428   7.615 -0.0022 -0.0742  0.1720
   19MOL    C56 5852   8.145   2.336   7.557 -0.4622  0.9843 -0.3605
   19MOL    C57 5853   8.250   2.280   7.630 -0.5058  0.5280 -0.3420
   19MOL    C58 5854   8.304   2.143   7.918  0.3593 -0.0403  0.6238
   19MOL    H59 5855   8.398   2.338   7.930 -1.4024  0.6870 -0.5596
   19MOL    H60 5856   8.182   2.439   7.923 -0.7270 -0.8586 -0.1577
   19MOL    H61 5857   7.973   2.467   7.554  1.3233  1.2306 -0.7805
   19MOL    H62 5858   8.120   2.306   7.456  0.1305 -1.3172  0.1479
   19MOL    H63 5859   8.315   2.210   7.580 -1.5094 -0.9228  0.3373
   19MOL    H64 5860   8.221   2.178   7.980  0.6690 -0.7884  1.4869
   19MOL    H65 5861   8.272   2.070   7.843  0.1028  1.7079 -1.0009
   19MOL    C66 5862   8.388   2.069   8.035  0.5284 -0.0766 -0.0043
   19MOL    C67 5863   8.413   2.167   8.157 -0.2009 -0.3724 -0.0030
   19MOL    C68 5864   0.087   2.252   8.162  0.9098 -0.7327  0.1987
   19MOL    C69 5865   0.099   2.353   8.258 -0.4348 -0.4238  0.1126
   19MOL   Cl70 5866   0.233   2.464   8.253 -0.0709  0.2931 -0.0212
   19MOL    C71 5867   8.431   2.361   8.357 -0.0795  0.0821  0.2810
   19MOL    C72 5868   8.331   2.267   8.362  0.4513  0.1657  0.4829
   19MOL    C73 5869   8.319   2.176   8.258  0.1558 -0.4504 -0.0271
   19MOL    C74 5870   8.313   1.930   8.074  0.1559  0.0357  0.1035
   19MOL    H75 5871   0.048   2.045   7.988  1.0126  0.2477  0.8009
   19MOL    H76 5872   0.167   2.254   8.088  0.1628 -0.4393 -0.6177
   19MOL    H77 5873   0.012   2.422   0.010  2.1570 -1.8048  1.2349
   19MOL    H78 5874   8.266   2.258   0.013  2.5191 -0.0576  2.0457
   19MOL    H79 5875   8.241   2.102   8.261 -1.5483  1.3322  0.3827
   19MOL    H80 5876   8.217   1.943   8.124 -0.2820  0.6977 -0.8881
   19MOL    H81 5877   8.300   1.888   7.974 -1.5908  0.2095  0.2363
   19MOL    C82 5878   8.411   1.824   8.133  0.2498 -0.3290  0.3407
   19MOL    C83 5879   8.422   1.845   8.288  0.0214  0.7860  0.0630
   19MOL    C84 5880   8.311   1.796   8.364 -0.0866 -0.3195  0.1615
   19MOL    C85 5881   8.330   1.785   0.069 -0.1310  0.2196 -0.0451
   19MOL   Cl86 5882   8.199   1.704   0.155 -0.1664 -0.0609 -0.1104
   19MOL    C87 5883   0.001   1.854   0.134 -0.6509  0.4259 -0.5287
   19MOL    C88 5884   0.111   1.899   0.056 -0.5777  0.2412 -0.1936
   19MOL    C89 5885   0.100   1.894   8.350  0.7887 -0.8069  0.4408
   19MOL    C90 5886   8.377   1.673   8.101 -0.6585 -0.6851  0.0405
   19MOL    H91 5887   0.077   1.843   8.098  0.0983 -0.8188 -0.3672
   19MOL    H92 5888   8.223   1.753   8.320  0.4066 -0.9360 -0.2196
   19MOL    H93 5889   0.020   1.855   0.240 -0.6501  2.0892 -0.5308
   19MOL    H94 5890   0.200   1.944   0.098  0.7189 -0.5969 -1.9972
   19MOL    H95 5891   0.183   1.937   8.296 -1.2839  0.5003 -1.7886
   19MOL    H96 5892   8.277   1.663   8.144 -1.9288  1.0014 -2.3761
   19MOL    H97 5893   8.361   1.651   7.995 -1.3389  2.4522 -0.5343
   19MOL    C98 5894   0.026   1.562   8.161  0.7919  0.4519  0.4866
   19MOL    C99 5895   8.375   1.473   8.238  0.2597 -0.6953  0.5950
   19MOL   C100 5896   8.407   1.460   8.371 -0.0155 -0.3038 -0.0256
   19MOL   C101 5897   8.337   1.376   0.022 -0.0415  0.7486  0.1199
   19MOL  Cl102 5898   8.388   1.355   0.191 -0.0925  0.0840 -0.2911
   19MOL   C103 5899   8.223   1.315   8.416  0.0905 -0.6112 -0.0784
   19MOL   C104 5900   8.190   1.323   8.274  1.0344  0.3416 -0.0061
   19MOL   C105 5901   8.259   1.408   8.186 -0.2116  0.0589 -0.6406
   19MOL   C106 5902   0.117   1.470   8.076  0.3969 -0.0509 -0.0275
   19MOL   H107 5903   0.108   1.609   8.217  1.7874 -1.4229  0.6343
   19MOL   H108 5904   0.054   1.514   8.417 -0.1104 -2.6176  3.0119
   19MOL   H109 5905   8.190   1.228   0.035 -1.6150 -0.1196 -0.3032
   19MOL   H110 5906   8.102   1.269   8.243 -0.0412  0.0907  3.2813
   19MOL   H111 5907   8.228   1.396   8.083 -0.5764 -0.5860 -0.4628
   19MOL   H112 5908   0.159   1.397   8.145 -0.3355 -1.6068 -1.2060
   19MOL   H113 5909   0.049   1.420   8.007  2.5238 -3.1247  0.0045
   19MOL   C114 5910   0.230   1.533   7.991 -0.0369  0.4807  1.1081
   19MOL   C115 5911   0.319   1.637   8.062  0.5166 -0.6424  0.7630
   19MOL   C116 5912   0.321   1.772   8.015 -0.0530  0.0647 -0.4018
   19MOL   C117 5913   0.395   1.876   8.081 -0.1114  0.1368  0.9251
   19MOL  Cl118 5914   0.385   2.039   8.032  0.1125 -0.0183 -0.0923
   19MOL   C119 5915   0.470   1.839   8.189 -0.3242  0.0951  0.3361
   19MOL   C120 5916   0.468   1.710   8.241  0.2026 -0.3978  0.2607
   19MOL   C121 5917   0.394   1.603   8.181  0.0620 -0.4684 -0.0231
   19MOL   C122 5918   0.311   1.429   7.914 -0.9175 -0.5794 -0.5828
   19MOL   H123 5919   0.174   1.591   7.917 -1.5271 -0.4274  1.5141
   19MOL   H124 5920   0.283   1.787   7.915  0.0263  0.6418 -0.3463
   19MOL   H125 5921   0.532   1.910   8.243  1.1316  0.7236 -2.0560
   19MOL   H126 5922   0.523   1.700   8.333 -0.0872  2.3283  0.7650
   19MOL   H127 5923   0.382   1.504   8.223  0.3007 -0.2690  0.5309
   19MOL   H128 5924   0.404   1.468   7.875 -0.9791 -0.7492 -0.8995
   19MOL   H129 5925   0.333   1.354   7.990 -1.8621  0.0053  0.2858
   19MOL   C130 5926   0.247   1.366   7.793  0.8679  0.9798 -0.1207
   19MOL   C131 5927   0.219   1.465   7.681 -0.1204 -0.6934  1.1603
   19MOL   C132 5928   0.329   1.548   7.636 -0.3207 -0.9041 -0.7015
   19MOL   C133 5929   0.311   1.620   7.513  0.5504 -0.6535  0.6176
   19MOL  Cl134 5930   0.436   1.716   7.437 -0.0925  0.4728  0.3563
   19MOL   C135 5931   0.180   1.640   7.465  0.0898  0.0140 -0.5077
   19MOL   C136 5932   0.070   1.572   7.524 -0.5401  0.1488 -0.2010
   19MOL   C137 5933   0.084   1.491   7.637 -0.6896 -0.1917 -0.2057
   19MOL   C138 5934   0.320   1.241   7.745 -0.6595 -0.3537 -0.7419
   19MOL   H139 5935   0.149   1.337   7.831  0.3798  2.8077  0.0694
   19MOL   H140 5936   0.431   1.547   7.669 -0.4784  2.2868  0.0520
   19MOL   H141 5937   0.159   1.700   7.378  0.6366  0.3581 -0.4064
   19MOL   H142 5938   8.406   1.577   7.483 -1.2422 -2.0388  1.1393
   19MOL   H143 5939   8.433   1.447   7.686  0.1262 -0.7986  0.6968
   19MOL   H144 5940   0.288   1.220   7.643 -4.8511  1.6410  0.0852
   19MOL   H145 5941   0.426   1.268   7.743 -0.2468 -1.6833  1.5860
   19MOL   C146 5942   0.289   1.109   7.826 -0.2152 -0.6367 -0.1534
   19MOL   C147 5943   0.139   1.077   7.844  0.6382 -0.7604  0.3019
   19MOL   C148 5944   0.088   1.086   7.979 -0.1598  0.1056  0.4087
   19MOL   C149 5945   8.397   1.037   8.002 -0.6009 -0.4165 -0.3579
   19MOL  Cl150 5946   8.350   1.026   8.159  0.0247 -0.2845  0.0757
   19MOL   C151 5947   8.321   0.981   7.892 -0.0582 -0.1674 -0.6369
   19MOL   C152 5948   8.369   0.991   7.760  0.1070 -0.3002  0.2969
   19MOL   C153 5949   0.068   1.031   7.731  0.6968  0.0350  0.6372
   19MOL   C154 5950   0.375   0.983   7.781 -0.6459 -0.1895  0.3044
   19MOL   H155 5951   0.323   1.120   7.929 -0.4386 -0.4562 -0.0974
   19MOL   H156 5952   0.150   1.110   8.064 -0.4879 -2.3296  1.3906
   19MOL   H157 5953   8.228   0.937   7.925  0.7329  0.9688  3.3669
   19MOL   H158 5954   8.303   0.959   7.681 -1.6845  0.2733  1.5249
   19MOL   H159 5955   0.101   1.030   7.628  1.0561 -2.2535  0.7667
   19MOL   H160 5956   0.347   0.904   7.851  0.3258  1.2934  2.4357
   19MOL   H161 5957   0.341   0.957   7.681  1.1607  1.6712 -0.8322
   19MOL   C162 5958   0.529   0.991   7.805 -1.0625  0.5667 -0.7100
   19MOL   C163 5959   0.578   1.034   7.942 -0.5234  0.0852  0.1181
   19MOL   C164 5960   0.670   1.140   7.951  0.5610  0.1273  0.5451
   19MOL   C165 5961   0.718   1.173   8.080 -0.1400  0.4893 -0.1074
   19MOL  Cl166 5962   0.826   1.310   8.099  0.3169 -0.3586  0.1551
   19MOL   C167 5963   0.687   1.093   8.190 -0.3171 -0.2274 -0.1963
   19MOL   C168 5964   0.595   0.990   8.178  0.1353  0.2860  0.3253
   19MOL   C169 5965   0.537   0.965   8.055 -0.7411  0.2215  0.3444
   19MOL   C170 5966   0.589   0.858   7.750  0.2922  0.3654 -0.6095
   19MOL   H171 5967   0.567   1.067   7.736 -0.0089  3.4880  2.9225
   19MOL   H172 5968   0.706   1.189   7.861  0.4931 -2.1273 -0.7304
   19MOL   H173 5969   0.724   1.121   8.288  2.3561 -1.2222 -0.8674
   19MOL   H174 5970   0.565   0.926   8.260 -0.6204  2.7941  2.0745
   19MOL   H175 5971   0.462   0.889   8.037  0.9095 -1.0275 -1.3949
   19MOL   H176 5972   0.529   0.783   7.803  1.7994  0.8552  1.8612
   19MOL   H177 5973   0.557   0.870   7.647 -3.5009 -1.8862  0.1863
   19MOL   C178 5974   0.742   0.822   7.771  0.0869  0.4795  0.0574
   19MOL   C179 5975   0.754   0.672   7.755  0.2387 -0.7704  0.3685
   19MOL   C180 5976   0.721   0.616   7.631  0.2260 -0.2521 -0.2773
   19MOL   C181 5977   0.764   0.481   7.607  0.5605 -0.0152 -0.9224
   19MOL  Cl182 5978   0.730   0.407   7.448  0.0272  0.1735 -0.3016
   19MOL   C183 5979   0.806   0.395   7.712 -0.3663  0.0693  0.4202
   19MOL   C184 5980   0.826   0.450   7.837 -0.9747 -0.5986 -0.4061
   19MOL   C185 5981   0.804   0.592   7.857  0.1579  0.3924  0.3940
   19MOL   C186 5982   0.849   0.909   7.687  0.3944  0.2737 -0.4595
   19MOL   H187 5983   0.748   0.841   7.879 -0.3634 -1.8151  0.5051
   19MOL   H188 5984   0.679   0.681   7.556 -0.0554 -1.4815 -1.2003
   19MOL   H189 5985   0.814   0.290   7.690 -0.0004  0.7756 -3.1092
   19MOL   H190 5986   0.865   0.389   7.917 -2.3558 -2.3109 -1.0204
   19MOL   H191 5987   0.813   0.633   7.957  0.4327 -0.9793  0.9366
   19MOL   H192 5988   0.838   0.888   7.580 -0.7723 -0.5216 -0.1895
   19MOL   H193 5989   0.827   1.015   7.683  0.2140  0.2439 -0.2313
   19MOL   C194 5990   0.991   0.894   7.742 -0.1004  0.0300  0.1473
   19MOL   C195 5991   1.096   0.936   7.634  0.0531 -0.4087 -0.1105
   19MOL   C196 5992   1.156   1.064   7.625  0.0001 -0.2705  0.0303
   19MOL   C197 5993   1.275   1.083   7.549  0.0582 -0.8162  0.5925
   19MOL  Cl198 5994   1.371   1.234   7.556 -0.2463  0.1913 -0.4193
   19MOL   C199 5995   1.318   0.983   7.470 -0.0068  0.5364  1.4007
   19MOL   C200 5996   1.247   0.861   7.462  0.0262  0.1979 -0.7732
   19MOL   C201 5997   1.132   0.843   7.539 -0.3335 -0.5415  0.3174
   19MOL   C202 5998   1.007   0.965   7.880  0.0238 -0.8930 -0.0224
   19MOL   H203 5999   1.009   0.787   7.750 -3.6406 -0.6030  0.2913
   19MOL   H204 6000   1.127   1.149   7.685 -0.9124  0.4604 -1.4071
   19MOL   H205 6001   1.413   1.002   7.421 -0.1317  0.5157  1.1492
   19MOL   H206 6002   1.279   0.782   7.395 -1.3214 -1.6979  0.7656
   19MOL   H207 6003   1.072   0.753   7.532 -0.9842 -0.2532  2.0172
   19MOL   H208 6004   0.976   1.067   7.857  0.5070 -1.0106 -1.2485
   19MOL   H209 6005   0.930   0.921   7.943  0.6917 -0.6689  0.9576
   19MOL   C210 6006   1.147   0.953   7.943 -0.3915 -0.3448  0.3715
   19MOL   C211 6007   1.143   1.030   8.077  0.2810 -0.0893  0.1501
   19MOL   C212 6008   1.253   1.114   8.101 -0.3608 -0.4061  0.2350
   19MOL   C213 6009   1.267   1.185   8.226 -0.7837 -0.1494  0.0530
   19MOL  Cl214 6010   1.411   1.274   8.250 -0.1874 -0.0428  0.0721
   19MOL   C215 6011   1.162   1.171   8.327 -0.7299 -0.0899  0.5612
   19MOL   C216 6012   1.053   1.089   8.292 -0.2822 -0.2672 -0.1327
   19MOL   C217 6013   1.048   1.010   8.172  0.2202 -0.2813 -0.9075
   19MOL   C218 6014   1.208   0.811   7.961 -0.0813  0.2493 -0.2930
   19MOL   H219 6015   1.219   1.005   7.881 -0.2125 -0.8652  0.1449
   19MOL   H220 6016   1.320   1.133   8.019  0.3102  1.5736  1.2062
   19MOL   H221 6017   1.165   1.226   8.420 -1.6918  2.5391 -0.9123
   19MOL   H222 6018   0.976   1.080   8.367 -0.3704  0.4204 -0.1334
   19MOL   H223 6019   0.967   0.940   8.160  0.1275 -0.5591  1.1075
   19MOL   H224 6020   1.238   0.813   8.065  1.5521  2.5570 -0.7740
   19MOL   H225 6021   1.129   0.739   7.939 -0.1574  0.3330 -0.2934
   19MOL   C226 6022   1.326   0.772   7.867 -0.5679 -0.3281  0.2631
   19MOL   C227 6023   1.443   0.867   7.894 -0.1017 -0.3833 -0.4409
   19MOL   C228 6024   1.515   0.921   7.780  0.1998 -0.1549 -0.5811
   19MOL   C229 6025   1.620   1.007   7.802 -0.8074  0.2465  0.1149
   19MOL  Cl230 6026   1.708   1.073   7.671 -0.1014 -0.0697 -0.4203
   19MOL   C231 6027   1.650   1.055   7.937 -0.6092 -0.5661  0.9364
   19MOL   C232 6028   1.565   1.010   8.047  0.0479  0.3792  0.9991
   19MOL   C233 6029   1.470   0.906   8.026 -0.2025 -0.2365  0.0361
   19MOL   C234 6030   1.382   0.631   7.874 -0.0012  0.9394 -0.8313
   19MOL   H235 6031   1.297   0.796   7.765  1.7816 -0.2116 -0.4179
   19MOL   H236 6032   1.495   0.895   7.677 -1.0534 -0.3020 -0.3198
   19MOL   H237 6033   1.722   1.129   7.969 -2.6664  1.6017  0.7247
   19MOL   H238 6034   1.582   1.051   8.146  1.4410 -0.0148  0.9202
   19MOL   H239 6035   1.413   0.869   8.110 -2.3124  1.2217 -0.7113
   19MOL   H240 6036   1.478   0.630   7.822  0.9638 -1.3195  0.9162
   19MOL   H241 6037   1.409   0.618   7.978  2.1656  1.3901 -1.3151
   19MOL   C242 6038   1.291   0.515   7.837 -0.3304 -0.0406  0.2215
   19MOL   C243 6039   1.267   0.508   7.684  0.6578  0.0007 -0.3977
   19MOL   C244 6040   1.374   0.508   7.589 -0.5992 -0.3225 -0.1811
   19MOL   C245 6041   1.357   0.488   7.452  0.1825 -0.5617  0.1389
   19MOL  Cl246 6042   1.481   0.505   7.336 -0.3083 -0.4238 -0.5216
   19MOL   C247 6043   1.220   0.471   7.410 -0.3082  0.0799 -0.6427
   19MOL   C248 6044   1.116   0.471   7.507  0.3558  0.0119 -0.3191
   19MOL   C249 6045   1.140   0.493   7.642 -0.2810  1.0250  1.0240
   19MOL   C250 6046   1.356   0.384   7.883 -0.2566  0.0594  0.0328
   19MOL   H251 6047   1.204   0.523   7.901 -0.2557  2.1432  0.0901
   19MOL   H252 6048   1.476   0.517   7.624 -1.9768  1.8089  3.5414
   19MOL   H253 6049   1.201   0.457   7.305 -2.8462  1.6481 -0.4409
   19MOL   H254 6050   1.011   0.468   7.480  0.4561 -0.6350 -0.6321
   19MOL   H255 6051   1.060   0.515   7.711  1.6817 -1.5024  4.2252
   19MOL   H256 6052   1.291   0.299   7.862  1.7399 -1.7561  1.0238
   19MOL   H257 6053   1.454   0.373   7.836  0.9381  0.1247  2.4186
   19MOL   C258 6054   1.389   0.373   8.035 -0.4828 -0.3697 -0.4282
   19MOL   C259 6055   1.263   0.407   8.115  0.1260  0.8144 -0.3194
   19MOL   C260 6056   1.154   0.316   8.120  0.0712 -0.2586 -0.0423
   19MOL   C261 6057   1.030   0.354   8.179  0.6225 -0.1118  0.6766
   19MOL  Cl262 6058   0.900   0.242   8.179  0.2970 -0.0668  0.1343
   19MOL   C263 6059   1.019   0.478   8.251 -0.6501 -0.2410  0.5657
   19MOL   C264 6060   1.132   0.562   8.253 -0.7246  0.2137 -0.1888
   19MOL   C265 6061   1.256   0.524   8.194 -0.5338 -0.0614 -0.1873
   19MOL   C266 6062   1.439   0.232   8.070 -0.0875 -0.3594 -0.2602
   19MOL   H267 6063   1.469   0.443   8.059  0.0428 -1.1063 -0.0252
   19MOL   H268 6064   1.154   0.225   8.062  0.5281  0.6597 -1.4875
   19MOL   H269 6065   0.925   0.516   8.288  0.0109  1.6345  0.3819
   19MOL   H270 6066   1.132   0.662   8.292  1.7703 -0.2149  0.9880
   19MOL   H271 6067   1.335   0.598   8.188 -0.6652  0.0228 -0.9249
   19MOL   H272 6068   1.412   0.195   8.169  0.2082  1.9611  0.7104
   19MOL   H273 6069   1.375   0.177   8.002 -0.5155  0.9413 -0.9103
   19MOL   C274 6070   1.583   0.195   8.041 -0.1278 -1.1794 -0.6295
   19MOL   C275 6071   1.680   0.194   8.161  0.0981 -0.1595 -0.2867
   19MOL   C276 6072   1.819   0.185   8.144  0.4220  0.5247 -0.4088
   19MOL   C277 6073   1.907   0.166   8.249  0.3566 -0.5966 -0.3633
   19MOL  Cl278 6074   2.077   0.160   8.216  0.1493  0.0314  0.1000
   19MOL   C279 6075   1.863   0.155   8.382  0.3877  0.2134  0.0377
   19MOL   C280 6076   1.721   0.180   8.398  0.2590  0.6851 -0.2362
   19MOL   C281 6077   1.632   0.191   8.296 -0.3510  1.0446 -0.1227
   19MOL   C282 6078   1.601   0.058   7.977  0.2647  0.3575  0.4241
   19MOL   H283 6079   1.632   0.263   7.972  2.1928 -0.2442  1.8782
   19MOL   H284 6080   1.856   0.199   8.043  2.6174 -0.4802  0.2292
   19MOL   H285 6081   1.930   0.124   0.025  0.5669  1.3699  0.3563
   19MOL   H286 6082   1.678   0.181   0.062  2.4218  2.1764  0.7038
   19MOL   H287 6083   1.529   0.207   8.328 -0.4273  1.4444 -0.5655
   19MOL   H288 6084   1.702   0.022   7.996  0.6905  1.1736 -0.2533
   19MOL   H289 6085   1.540   8.411   8.015  0.5836 -0.7753 -1.4364
   19MOL   C290 6086   1.585   0.069   7.827  0.3400 -0.1810  0.0708
   19MOL   C291 6087   1.692   0.140   7.757 -0.7428 -0.1610  0.3361
   19MOL   C292 6088   1.830   0.109   7.781  0.6846 -0.0897 -0.5724
   19MOL   C293 6089   1.927   0.174   7.710  1.0348 -0.2622  0.8304
   19MOL  Cl294 6090   2.097   0.128   7.722  0.2510  0.1528 -0.4027
   19MOL   C295 6091   1.893   0.290   7.640  0.3155  0.3411 -0.1842
   19MOL   C296 6092   1.758   0.334   7.626 -0.6227  0.4930 -0.2876
   19MOL   C297 6093   1.657   0.256   7.678 -0.2116  0.9265 -0.2634
   19MOL   C298 6094   1.552   8.367   7.754 -0.3450  0.3492 -1.0619
   19MOL   H299 6095   1.491   0.124   7.822 -0.5936 -1.7962 -0.4127
   19MOL   H300 6096   1.852   0.035   7.856 -1.6846 -0.1258  0.1097
   19MOL   H301 6097   1.973   0.347   7.596 -0.1529 -0.6823 -2.4418
   19MOL   H302 6098   1.735   0.431   7.586 -0.4564  0.3778 -0.6654
   19MOL   H303 6099   1.553   0.283   7.664 -0.4528 -0.2808 -0.8910
   19MOL   H304 6100   1.563   8.390   7.649  1.0708  1.6883 -0.6401
   19MOL   H305 6101   1.633   8.301   7.787  0.1306  0.1019 -2.7073
   19MOL   C306 6102   1.412   8.305   7.775 -0.2910  0.2265 -0.6344
   19MOL   C307 6103   1.300   8.407   7.739  0.4160  1.0089 -0.1509
   19MOL   C308 6104   1.184   8.427   7.819 -0.0435 -0.3050 -0.2955
   19MOL   C309 6105   1.081   0.070   7.773 -0.7034 -0.4631 -0.0056
   19MOL  Cl310 6106   0.929   0.079   7.861  0.3340  0.1385 -0.5057
   19MOL   C311 6107   1.092   0.143   7.654  0.3328 -0.0672  0.0729
   19MOL   C312 6108   1.210   0.131   7.581 -0.1072 -0.8986 -0.0818
   19MOL   C313 6109   1.311   0.042   7.620 -0.3431  0.2943 -0.0772
   19MOL   C314 6110   1.391   8.172   7.707 -0.0850 -0.1732 -0.2450
   19MOL   H315 6111   1.392   8.274   7.878 -0.2581 -0.9070 -0.9676
   19MOL   H316 6112   1.160   8.364   7.903 -2.3300  0.4034 -0.4035
   19MOL   H317 6113   1.006   0.202   7.627 -0.8268 -1.7050  0.1185
   19MOL   H318 6114   1.211   0.174   7.482 -0.9490 -1.3531 -0.2904
   19MOL   H319 6115   1.391   0.041   7.548 -0.6480  0.6897 -0.4209
   19MOL   H320 6116   1.289   8.134   7.711  0.0704 -0.5433  0.1872
   19MOL   H321 6117   1.417   8.183   7.602  1.6146  1.9279  0.3417
   19MOL   H322 6118   1.453   8.087   7.735  0.9761  0.8499  0.6030
   20MOL     C1 6119   7.201   3.525   3.975  0.0016  0.1505  0.6612
   20MOL     C2 6120   7.240   3.618   3.861 -0.2881 -1.0662  0.1354
   20MOL     C3 6121   7.158   3.732   3.844  0.3932 -0.3305 -0.1316
   20MOL     C4 6122   7.169   3.814   3.731  0.5317  0.4060 -0.9178
   20MOL    Cl5 6123   7.058   3.947   3.725  0.0963 -0.1321  0.3903
   20MOL     C6 6124   7.279   3.798   3.643 -0.2413  0.2189  0.1460
   20MOL     C7 6125   7.370   3.691   3.670 -0.3307  0.3455 -0.7339
   20MOL     C8 6126   7.348   3.600   3.778 -0.2275 -0.4615  0.7781
   20MOL     C9 6127   7.124   3.406   3.930 -0.2401 -0.1590 -0.2481
   20MOL    H10 6128   7.142   3.580   4.049  0.2349  2.0862 -0.5447
   20MOL    H11 6129   7.076   3.744   3.913  1.6632 -1.5458  1.6273
   20MOL    H12 6130   7.286   3.860   3.555  1.0260 -0.0057  0.0778
   20MOL    H13 6131   7.440   3.667   3.592  2.1523 -0.4386  1.6462
   20MOL    H14 6132   7.407   3.509   3.785  0.7767  0.0072 -1.1678
   20MOL    H15 6133   7.022   3.431   3.902  0.1631  0.9868 -0.7325
   20MOL    H16 6134   7.165   3.354   3.844  0.6935 -0.2854  0.2695
   20MOL    H17 6135   7.295   3.492   4.018  1.0219 -0.0898 -1.6781
   20MOL    C18 6136   7.096   3.291   4.035  0.7573 -0.8777  0.0234
   20MOL    C19 6137   7.048   3.349   4.169 -0.5491  0.5079 -0.5656
   20MOL    C20 6138   7.127   3.316   4.284 -0.5700 -0.4438 -0.2256
   20MOL    C21 6139   7.102   3.379   4.406  0.4828  0.5334  0.1384
   20MOL   Cl22 6140   7.211   3.346   4.540  0.6494 -0.2054 -0.1082
   20MOL    C23 6141   6.989   3.464   4.420  0.2410 -0.1012  0.2798
   20MOL    C24 6142   6.902   3.489   4.313  0.2047 -0.3350  0.1182
   20MOL    C25 6143   6.931   3.423   4.188 -0.0484 -0.8002 -0.1830
   20MOL    C26 6144   7.006   3.181   3.986  0.7012  0.4048 -0.3076
   20MOL    H27 6145   7.189   3.237   4.051 -0.8858 -4.5984 -2.3325
   20MOL    H28 6146   7.201   3.238   4.275  0.5671  0.4398  1.2836
   20MOL    H29 6147   6.974   3.509   4.517 -0.6364  0.4746 -0.1191
   20MOL    H30 6148   6.822   3.559   4.329  0.5211  0.1599 -0.4267
   20MOL    H31 6149   6.875   3.461   4.104  0.7123 -0.7572 -0.6735
   20MOL    H32 6150   6.960   3.125   4.067  0.3945 -0.9951 -1.4202
   20MOL    H33 6151   6.920   3.223   3.932 -1.2133 -3.0417 -0.1142
   20MOL    C34 6152   7.067   3.067   3.898  0.1742 -0.0739  1.0703
   20MOL    C35 6153   7.173   2.989   3.980  0.4280 -0.4723  0.5775
   20MOL    C36 6154   7.313   3.013   3.953 -0.3987 -0.7166  0.0344
   20MOL    C37 6155   7.411   2.936   4.025 -0.5066  0.6908  0.7842
   20MOL   Cl38 6156   7.590   2.934   3.992  0.0484 -0.3398 -0.3814
   20MOL    C39 6157   7.367   2.839   4.114 -0.0626  0.6859 -0.5272
   20MOL    C40 6158   7.235   2.815   4.144  0.0525  0.6724  0.6047
   20MOL    C41 6159   7.141   2.896   4.075 -0.1414 -0.4530 -0.3893
   20MOL    C42 6160   6.959   2.979   3.823 -0.8488  0.7328  0.6401
   20MOL    H43 6161   7.128   3.121   3.825 -0.7586  0.0598  0.3672
   20MOL    H44 6162   7.351   3.076   3.874  0.6720 -1.7612 -0.2968
   20MOL    H45 6163   7.446   2.780   4.157 -1.1469 -0.8522 -0.5647
   20MOL    H46 6164   7.196   2.732   4.200  0.3659  1.4167  1.9650
   20MOL    H47 6165   7.037   2.873   4.093  0.1303 -1.1453  0.3441
   20MOL    H48 6166   7.006   2.887   3.789  1.2397  2.2003 -0.5720
   20MOL    H49 6167   6.878   2.947   3.888 -0.1787 -1.3936  0.4779
   20MOL    C50 6168   6.895   3.040   3.699 -0.0040 -0.9091 -0.2223
   20MOL    C51 6169   6.995   3.086   3.593  0.1080 -0.3797 -1.4145
   20MOL    C52 6170   7.080   2.994   3.524  0.7738  0.3825  0.4237
   20MOL    C53 6171   7.169   3.044   3.424 -0.0110 -0.5778  0.1996
   20MOL   Cl54 6172   7.273   2.936   3.342  0.2737 -0.1820  0.1286
   20MOL    C55 6173   7.175   3.184   3.401  0.4113 -0.5438 -0.3536
   20MOL    C56 6174   7.089   3.272   3.466 -0.2587  0.2942 -0.1467
   20MOL    C57 6175   7.002   3.227   3.563 -0.4451  0.2160 -0.0137
   20MOL    C58 6176   6.782   2.958   3.642 -0.1283  0.4627 -0.5365
   20MOL    H59 6177   6.844   3.125   3.744 -1.0600 -0.5222 -2.0996
   20MOL    H60 6178   7.080   2.892   3.561  1.0464 -0.8152 -2.6784
   20MOL    H61 6179   7.246   3.224   3.330 -0.4402  0.2674 -0.7593
   20MOL    H62 6180   7.078   3.378   3.448  0.6981  0.8708  2.4838
   20MOL    H63 6181   6.945   3.294   3.624  2.0823  0.7428  1.8554
   20MOL    H64 6182   6.825   2.859   3.626 -0.2760  0.6373 -2.0719
   20MOL    H65 6183   6.706   2.948   3.720 -1.2247  1.6987 -1.4291
   20MOL    C66 6184   6.725   3.008   3.512  0.0844  0.3955 -0.7941
   20MOL    C67 6185   6.625   2.908   3.472  0.9354  0.7936 -0.0207
   20MOL    C68 6186   6.503   2.894   3.545 -0.2472  0.9458 -0.5689
   20MOL    C69 6187   6.407   2.800   3.503 -0.0126 -0.1498  0.1381
   20MOL   Cl70 6188   6.263   2.788   3.599  0.1148  0.0474  0.4222
   20MOL    C71 6189   6.426   2.716   3.394  0.1707  0.1235  0.3384
   20MOL    C72 6190   6.544   2.736   3.315  0.1873 -0.2759  0.9744
   20MOL    C73 6191   6.647   2.822   3.363  0.5673  0.5292  0.3605
   20MOL    C74 6192   6.677   3.154   3.516  0.2603 -0.6253  0.1642
   20MOL    H75 6193   6.815   2.993   3.451 -0.4293 -1.3386 -1.1700
   20MOL    H76 6194   6.479   2.944   3.638  2.4820 -0.7147  1.0762
   20MOL    H77 6195   6.354   2.646   3.354 -1.1074  0.1933  2.4402
   20MOL    H78 6196   6.555   2.686   3.220 -1.8480  1.5511 -0.2572
   20MOL    H79 6197   6.738   2.835   3.306 -0.9115  1.6302 -1.8449
   20MOL    H80 6198   6.595   3.162   3.589 -0.0336  0.0797 -0.2405
   20MOL    H81 6199   6.747   3.229   3.553  1.1243 -1.0888 -0.5212
   20MOL    C82 6200   6.618   3.215   3.389  0.2257  0.4831  0.8618
   20MOL    C83 6201   6.532   3.336   3.419  0.1896  0.1581  0.3339
   20MOL    C84 6202   6.586   3.470   3.420  0.3668  1.5138  0.3607
   20MOL    C85 6203   6.498   3.573   3.426 -0.0044 -0.0594 -0.9942
   20MOL   Cl86 6204   6.540   3.728   3.366 -0.4984 -0.2679 -0.1032
   20MOL    C87 6205   6.364   3.550   3.456  0.1168 -0.4665  0.4595
   20MOL    C88 6206   6.313   3.422   3.476  0.1219  0.9662 -0.2826
   20MOL    C89 6207   6.397   3.311   3.452  0.5994 -0.5211  0.3593
   20MOL    C90 6208   6.720   3.233   3.272 -0.0622  0.1541  0.0611
   20MOL    H91 6209   6.550   3.134   3.365 -0.2117  0.3594  2.4408
   20MOL    H92 6210   6.685   3.496   3.387 -0.5110  4.4687 -0.1518
   20MOL    H93 6211   6.289   3.627   3.461  2.4044  1.7017  2.3961
   20MOL    H94 6212   6.206   3.413   3.483  0.2923 -0.0349  1.3558
   20MOL    H95 6213   6.353   3.213   3.444  0.2371 -0.2786 -0.6777
   20MOL    H96 6214   6.736   3.340   3.261 -0.6442  0.4476  1.9468
   20MOL    H97 6215   6.813   3.183   3.301  0.8991  1.3837 -0.8538
   20MOL    C98 6216   6.669   3.175   3.137  0.1302  0.5384  0.2823
   20MOL    C99 6217   6.544   3.250   3.098 -0.4038 -0.1091 -0.1913
   20MOL   C100 6218   6.546   3.393   3.076  1.3455 -1.0251 -0.0729
   20MOL   C101 6219   6.435   3.462   3.035  0.2588 -0.5063  0.4000
   20MOL  Cl102 6220   6.443   3.629   3.030 -0.2986  0.0576  0.0045
   20MOL   C103 6221   6.317   3.388   3.008 -0.8815 -0.6561 -0.1964
   20MOL   C104 6222   6.312   3.252   3.024 -0.0445  0.2940 -1.1341
   20MOL   C105 6223   6.426   3.178   3.062  0.5180 -0.3307  0.2777
   20MOL   C106 6224   6.771   3.183   3.019  0.4114 -0.1628 -0.2910
   20MOL   H107 6225   6.638   3.072   3.154 -1.2386  0.8634 -0.2266
   20MOL   H108 6226   6.634   3.453   3.093  0.5956 -0.0316  0.3355
   20MOL   H109 6227   6.221   3.432   2.981 -1.4420 -1.1503  0.9829
   20MOL   H110 6228   6.217   3.201   3.017  0.3178 -0.3806 -1.1616
   20MOL   H111 6229   6.426   3.070   3.070 -2.6324 -0.3604  0.7201
   20MOL   H112 6230   6.807   3.286   3.021 -0.5698  0.2148 -1.3155
   20MOL   H113 6231   6.859   3.124   3.043 -0.3495 -2.4073 -2.6436
   20MOL   C114 6232   6.723   3.162   2.872 -0.5124 -0.2927  0.2954
   20MOL   C115 6233   6.791   3.268   2.782 -0.5384  0.2363  0.1700
   20MOL   C116 6234   6.934   3.276   2.761 -0.2869  0.2787  0.9215
   20MOL   C117 6235   6.989   3.392   2.706 -0.0121  0.7750  0.4344
   20MOL  Cl118 6236   7.154   3.410   2.672 -0.0244 -0.1050 -0.1194
   20MOL   C119 6237   6.910   3.501   2.688 -0.7508 -0.5829 -0.4746
   20MOL   C120 6238   6.774   3.502   2.707 -0.3033 -0.0673 -0.2842
   20MOL   C121 6239   6.710   3.379   2.745 -0.1003 -0.1045  0.5373
   20MOL   C122 6240   6.760   3.017   2.820 -0.5821 -0.1037  0.2767
   20MOL   H123 6241   6.615   3.166   2.860 -0.2682 -2.1735 -2.9498
   20MOL   H124 6242   6.995   3.200   2.809  1.6796  1.0792 -0.2418
   20MOL   H125 6243   6.954   3.585   2.638 -1.6361 -0.0196 -0.3314
   20MOL   H126 6244   6.723   3.595   2.690  0.1740 -0.0428 -1.6209
   20MOL   H127 6245   6.605   3.357   2.738 -0.0539 -1.2125  3.1114
   20MOL   H128 6246   6.756   3.017   2.711 -0.9433  0.1407  0.2893
   20MOL   H129 6247   6.865   2.996   2.838  0.4805  2.9243 -1.9587
   20MOL   C130 6248   6.689   2.895   2.880  0.1057  0.4673  0.0053
   20MOL   C131 6249   6.535   2.891   2.878  0.4607  0.0572  0.2518
   20MOL   C132 6250   6.457   2.952   2.784 -0.0916  0.5443  0.0160
   20MOL   C133 6251   6.313   2.947   2.782  0.0664  0.4769 -0.5770
   20MOL  Cl134 6252   6.236   3.034   2.665  0.0343 -0.1238 -0.3197
   20MOL   C135 6253   6.246   2.873   2.885  0.3251  0.2262  0.2664
   20MOL   C136 6254   6.324   2.803   2.977  0.0807 -0.6180  0.0198
   20MOL   C137 6255   6.466   2.810   2.971 -0.3990 -0.5273  0.3527
   20MOL   C138 6256   6.737   2.764   2.811 -0.5587  0.8301  0.1511
   20MOL   H139 6257   6.723   2.887   2.983  0.4502 -0.2383 -0.1588
   20MOL   H140 6258   6.506   3.007   2.705 -0.0982 -2.1857 -1.9368
   20MOL   H141 6259   6.140   2.851   2.887  0.4050 -0.1441  0.5343
   20MOL   H142 6260   6.278   2.738   3.050  1.5721 -2.3730 -0.5754
   20MOL   H143 6261   6.527   2.746   3.033 -0.8242 -0.5137  0.7894
   20MOL   H144 6262   6.656   2.691   2.813  2.4420 -2.6729  0.0528
   20MOL   H145 6263   6.747   2.787   2.705 -2.9448  1.4845  0.0531
   20MOL   C146 6264   6.864   2.703   2.870 -0.3205 -0.0226 -0.3335
   20MOL   C147 6265   6.824   2.634   3.004 -0.2019  0.0478  0.3141
   20MOL   C148 6266   6.895   2.673   3.120 -0.0090  0.0709  0.4666
   20MOL   C149 6267   6.877   2.610   3.242  0.1615  0.9395  0.3796
   20MOL  Cl150 6268   6.945   2.681   3.384  0.0141 -0.0069  0.2164
   20MOL   C151 6269   6.788   2.496   3.249  0.3619 -0.1995  0.0944
   20MOL   C152 6270   6.712   2.463   3.134 -0.1161 -0.5370 -0.0164
   20MOL   C153 6271   6.734   2.528   3.011 -0.5399  0.5045 -0.2874
   20MOL   C154 6272   6.931   2.599   2.778 -0.5372 -0.2581  0.2275
   20MOL   H155 6273   6.939   2.774   2.903  0.0430 -0.5495 -0.0255
   20MOL   H156 6274   6.968   2.752   3.111  0.1907 -0.1727 -0.0202
   20MOL   H157 6275   6.772   2.443   3.342 -0.1160 -0.9494 -0.4141
   20MOL   H158 6276   6.647   2.377   3.133 -0.8989  0.0532 -1.4826
   20MOL   H159 6277   6.696   2.495   2.916 -0.4171 -1.7080  0.3929
   20MOL   H160 6278   6.875   2.506   2.781 -0.8200 -0.3048 -3.5249
   20MOL   H161 6279   6.914   2.642   2.679 -1.9914 -0.0255  0.5778
   20MOL   C162 6280   7.085   2.590   2.789 -0.6768 -0.6767 -0.7990
   20MOL   C163 6281   7.131   2.546   2.933  0.3865  0.2637 -0.1846
   20MOL   C164 6282   7.224   2.627   2.997 -0.1251 -0.2787  0.1684
   20MOL   C165 6283   7.290   2.586   3.113  0.0802  0.0881  0.1811
   20MOL  Cl166 6284   7.430   2.663   3.181  0.4983 -0.0293 -0.3444
   20MOL   C167 6285   7.239   2.472   3.181  0.2715 -0.1111  0.3419
   20MOL   C168 6286   7.137   2.392   3.122  1.0458 -0.9872 -0.6077
   20MOL   C169 6287   7.080   2.429   2.999 -0.2339  0.1770 -0.1682
   20MOL   C170 6288   7.146   2.518   2.666 -0.3623  0.0639 -0.6788
   20MOL   H171 6289   7.116   2.693   2.777  0.1428 -1.0598 -2.1063
   20MOL   H172 6290   7.264   2.714   2.946 -0.6164 -0.4025 -0.4432
   20MOL   H173 6291   7.292   2.438   3.269  0.6293 -1.4368 -0.3748
   20MOL   H174 6292   7.098   2.312   3.182 -2.4411  1.2934  0.2568
   20MOL   H175 6293   6.996   2.369   2.966 -0.9182  0.7015  0.5783
   20MOL   H176 6294   7.150   2.411   2.684  1.3218 -0.3120 -2.9811
   20MOL   H177 6295   7.082   2.542   2.581 -0.7252  0.5258 -0.2784
   20MOL   C178 6296   7.286   2.575   2.637 -0.3131  0.4426 -0.0700
   20MOL   C179 6297   7.382   2.468   2.609 -0.1779  0.0452  0.3352
   20MOL   C180 6298   7.373   2.392   2.489 -0.5909 -0.3406 -0.1587
   20MOL   C181 6299   7.461   2.285   2.474 -0.4178 -0.3164  0.0539
   20MOL  Cl182 6300   7.449   2.194   2.329 -0.1905  0.0409  0.0009
   20MOL   C183 6301   7.575   2.269   2.558  1.1206  0.5310  0.6144
   20MOL   C184 6302   7.579   2.350   2.672 -0.0940  0.2351  0.2659
   20MOL   C185 6303   7.490   2.450   2.696  0.0200  0.6893  0.1679
   20MOL   C186 6304   7.293   2.677   2.522 -0.0039  0.6653 -0.5544
   20MOL   H187 6305   7.335   2.620   2.724  1.6401 -0.3368 -0.7321
   20MOL   H188 6306   7.299   2.400   2.412  0.7046 -1.2952 -1.5296
   20MOL   H189 6307   7.642   2.185   2.546  2.3247  1.5268  0.2436
   20MOL   H190 6308   7.662   2.332   2.739 -0.0169 -0.3551  0.0184
   20MOL   H191 6309   7.500   2.499   2.791  1.9351  0.6254  0.0363
   20MOL   H192 6310   7.401   2.690   2.511  0.1070  1.7953  1.6920
   20MOL   H193 6311   7.246   2.641   2.431 -1.5718  2.3598 -0.4489
   20MOL   C194 6312   7.227   2.814   2.560  0.4627 -0.4478 -0.4078
   20MOL   C195 6313   7.277   2.875   2.690  0.5944 -0.4402  0.1637
   20MOL   C196 6314   7.187   2.940   2.776  0.0562 -0.3798  0.6992
   20MOL   C197 6315   7.225   2.999   2.894  0.4725 -0.2835 -0.1413
   20MOL  Cl198 6316   7.118   3.072   3.001 -0.2706  0.1386  0.1076
   20MOL   C199 6317   7.363   2.999   2.926 -0.9151 -0.4993 -0.7232
   20MOL   C200 6318   7.459   2.932   2.845 -0.7504  0.0794  0.3657
   20MOL   C201 6319   7.414   2.865   2.726  0.4907 -1.2029  0.8631
   20MOL   C202 6320   7.252   2.913   2.440 -0.6238 -0.2625 -0.4813
   20MOL   H203 6321   7.123   2.794   2.587  0.0177 -1.0985 -2.5372
   20MOL   H204 6322   7.086   2.953   2.741  0.3098 -0.5276 -0.0906
   20MOL   H205 6323   7.394   3.060   3.009 -0.8242 -3.1643  1.2861
   20MOL   H206 6324   7.565   2.936   2.865 -0.5521 -3.8192  0.5875
   20MOL   H207 6325   7.485   2.821   2.658  1.7027 -0.0358  1.3416
   20MOL   H208 6326   7.244   3.018   2.468  5.5790 -0.1208  1.4533
   20MOL   H209 6327   7.358   2.905   2.414 -0.4496 -0.0921  0.1759
   20MOL   C210 6328   7.155   2.883   2.322  0.7006  0.4813  0.0605
   20MOL   C211 6329   7.005   2.899   2.356 -0.2648  0.3658 -0.1315
   20MOL   C212 6330   6.924   2.793   2.392  0.3856  0.1604  0.5150
   20MOL   C213 6331   6.780   2.811   2.423 -1.2331  0.6790  0.5078
   20MOL  Cl214 6332   6.682   2.677   2.465  0.6048 -0.0850  0.1744
   20MOL   C215 6333   6.729   2.947   2.422 -0.0231  0.0110 -0.6645
   20MOL   C216 6334   6.815   3.047   2.397  0.0135  0.1257 -0.0947
   20MOL   C217 6335   6.949   3.030   2.366  0.4917 -0.4268  0.3166
   20MOL   C218 6336   7.190   2.964   2.202  0.7806  0.7504 -0.5312
   20MOL   H219 6337   7.167   2.777   2.304  0.2253  0.6852 -1.5650
   20MOL   H220 6338   6.974   2.697   2.401  0.9436  0.4983  1.0363
   20MOL   H221 6339   6.626   2.974   2.439 -0.0167  0.1554 -0.8536
   20MOL   H222 6340   6.782   3.147   2.420  0.1618  0.2057 -0.2270
   20MOL   H223 6341   7.016   3.113   2.352 -2.6710  1.9502 -1.4116
   20MOL   H224 6342   7.099   2.986   2.147  0.2775  1.2251  0.4728
   20MOL   H225 6343   7.231   3.061   2.228  0.8918  0.4598  0.4188
   20MOL   C226 6344   7.289   2.908   2.100 -0.0616 -0.0675 -0.7888
   20MOL   C227 6345   7.413   2.836   2.166 -1.0696  0.9569 -0.2552
   20MOL   C228 6346   7.527   2.909   2.171  0.1672 -0.3424 -0.4037
   20MOL   C229 6347   7.651   2.867   2.221 -0.3945 -0.6342  0.4509
   20MOL  Cl230 6348   7.790   2.971   2.210  0.3830  0.2855 -0.0639
   20MOL   C231 6349   7.661   2.732   2.259 -0.7002 -0.1720  0.7179
   20MOL   C232 6350   7.540   2.651   2.260  0.0974 -0.0348 -0.5062
   20MOL   C233 6351   7.421   2.705   2.208 -0.5685  0.1920 -1.6047
   20MOL   C234 6352   7.230   2.815   1.987  0.1371 -0.5062 -0.0068
   20MOL   H235 6353   7.316   2.998   2.046  0.1732  1.5053  1.8380
   20MOL   H236 6354   7.521   3.008   2.127  0.1253  0.3094  1.0183
   20MOL   H237 6355   7.756   2.695   2.293  0.6594  0.6541 -2.0215
   20MOL   H238 6356   7.544   2.547   2.289  0.4360  0.3476  0.8781
   20MOL   H239 6357   7.334   2.644   2.190 -0.5147 -0.7099  0.9801
   20MOL   H240 6358   7.183   2.735   2.044 -0.6352 -0.5021 -0.6200
   20MOL   H241 6359   7.149   2.875   1.946 -0.6709 -1.3351  0.3499
   20MOL   C242 6360   7.317   2.771   1.868 -0.1272  0.0357  0.7142
   20MOL   C243 6361   7.416   2.656   1.906 -0.2207 -0.5589 -0.1688
   20MOL   C244 6362   7.372   2.524   1.930 -0.0487  0.6215  0.3073
   20MOL   C245 6363   7.463   2.420   1.960  0.1691  1.1414  0.7205
   20MOL  Cl246 6364   7.407   2.261   1.986 -0.3474 -0.0895  0.0749
   20MOL   C247 6365   7.601   2.440   1.950  0.4595 -0.3534 -1.0454
   20MOL   C248 6366   7.646   2.573   1.920 -0.0116  0.3283 -0.1040
   20MOL   C249 6367   7.555   2.678   1.904  0.0090  0.0306 -0.6649
   20MOL   C250 6368   7.237   2.726   1.741 -0.4029 -0.0032  0.3454
   20MOL   H251 6369   7.378   2.858   1.845  0.2566  0.1706  2.1770
   20MOL   H252 6370   7.269   2.493   1.928  0.1667 -0.0862  0.0282
   20MOL   H253 6371   7.678   2.367   1.968  0.5016 -0.2312 -0.7301
   20MOL   H254 6372   7.750   2.600   1.913  0.5452 -1.8086 -0.5283
   20MOL   H255 6373   7.596   2.776   1.883 -2.4561  1.4171  0.7201
   20MOL   H256 6374   7.293   2.652   1.684  0.2918  0.3348  0.5897
   20MOL   H257 6375   7.148   2.675   1.780 -0.1900  0.2545  1.1979
   20MOL   C258 6376   7.187   2.842   1.646  0.2605  0.1188 -0.6591
   20MOL   C259 6377   7.296   2.919   1.580 -0.1693 -0.3587  0.3041
   20MOL   C260 6378   7.290   3.060   1.560  0.3695 -0.0544 -1.3928
   20MOL   C261 6379   7.393   3.130   1.494  0.0621  0.1889 -0.5118
   20MOL  Cl262 6380   7.397   3.300   1.492  0.2737  0.2041  0.0091
   20MOL   C263 6381   7.502   3.059   1.440  0.0628 -0.5697  0.0897
   20MOL   C264 6382   7.512   2.917   1.458  0.4061  0.8319  0.4897
   20MOL   C265 6383   7.404   2.852   1.528  0.0218 -0.6527  0.3313
   20MOL   C266 6384   7.094   2.782   1.533  0.2258 -0.3567 -0.5719
   20MOL   H267 6385   7.138   2.920   1.704  0.7294  0.0723 -0.1862
   20MOL   H268 6386   7.208   3.119   1.601  0.5630 -1.5418  1.2481
   20MOL   H269 6387   7.580   3.113   1.389 -1.8004  2.3724  0.2210
   20MOL   H270 6388   7.594   2.859   1.419  0.1105  1.1562 -0.6287
   20MOL   H271 6389   7.401   2.744   1.531  2.6010 -0.7830 -0.7096
   20MOL   H272 6390   7.075   2.865   1.464 -1.3993  1.2186  1.7198
   20MOL   H273 6391   7.152   2.710   1.474  0.7429 -0.4000 -0.0149
   20MOL   C274 6392   6.957   2.712   1.563 -0.9130 -0.1878  0.2730
   20MOL   C275 6393   6.882   2.787   1.670  0.2452 -0.6275  0.0995
   20MOL   C276 6394   6.827   2.719   1.781  0.3050 -0.4509  0.7233
   20MOL   C277 6395   6.747   2.784   1.881 -0.5257  0.0245  0.4332
   20MOL  Cl278 6396   6.703   2.693   2.022 -0.5746  0.4006 -0.1945
   20MOL   C279 6397   6.728   2.923   1.868 -0.5076 -0.5927  0.0282
   20MOL   C280 6398   6.783   2.991   1.756 -0.0508  0.2006  0.2165
   20MOL   C281 6399   6.854   2.924   1.655 -0.1849 -0.5960 -0.2608
   20MOL   C282 6400   6.867   2.699   1.436 -0.3532 -0.3331  0.3550
   20MOL   H283 6401   6.984   2.612   1.597  0.5910  0.0613 -0.1538
   20MOL   H284 6402   6.838   2.612   1.787  0.3212 -0.5561 -0.9170
   20MOL   H285 6403   6.675   2.979   1.944 -0.3034 -0.1975 -0.1203
   20MOL   H286 6404   6.785   3.098   1.745  1.8951 -0.0373 -2.4514
   20MOL   H287 6405   6.884   2.971   1.563 -1.1550  0.9628  0.1991
   20MOL   H288 6406   6.777   2.645   1.464 -1.1540  0.9232  0.2857
   20MOL   H289 6407   6.846   2.799   1.398  1.9850  0.5979  1.3852
   20MOL   C290 6408   6.930   2.624   1.318  1.1956 -0.6486 -0.4018
   20MOL   C291 6409   6.999   2.499   1.365 -0.9454 -0.2335  0.0303
   20MOL   C292 6410   7.133   2.471   1.331 -0.2366  0.0355  0.3730
   20MOL   C293 6411   7.197   2.349   1.370  0.4505  0.1780 -0.2571
   20MOL  Cl294 6412   7.357   2.323   1.317 -0.4143  0.0208 -0.0225
   20MOL   C295 6413   7.122   2.250   1.433  1.0050  0.0682 -0.2166
   20MOL   C296 6414   6.988   2.273   1.469 -0.0860  0.1550  0.1117
   20MOL   C297 6415   6.931   2.400   1.438  0.0488 -0.7248 -0.3457
   20MOL   C298 6416   6.834   2.602   1.202 -0.7632 -0.0139 -0.0969
   20MOL   H299 6417   7.007   2.688   1.275  1.3936 -0.8921 -0.4115
   20MOL   H300 6418   7.194   2.544   1.279 -1.4356  1.7995  1.3831
   20MOL   H301 6419   7.154   2.150   1.459 -0.0191 -0.3101 -0.3596
   20MOL   H302 6420   6.932   2.189   1.508 -0.4057 -0.1104 -0.8961
   20MOL   H303 6421   6.826   2.419   1.457  0.1161  0.6168 -1.2718
   20MOL   H304 6422   6.811   2.496   1.187  0.5106 -0.2512 -0.5296
   20MOL   H305 6423   6.741   2.652   1.226  0.4783  2.7558 -0.8421
   20MOL   C306 6424   6.875   2.655   1.059  0.2008  0.5483  0.2944
   20MOL   C307 6425   7.028   2.653   1.032 -0.6315  0.8583 -0.4251
   20MOL   C308 6426   7.103   2.769   1.041  0.2557 -0.5128 -0.2674
   20MOL   C309 6427   7.245   2.770   1.027 -0.5361 -0.6077  0.0411
   20MOL  Cl310 6428   7.332   2.925   1.031  0.3051 -0.0157 -0.1277
   20MOL   C311 6429   7.310   2.645   0.984  0.4619  0.2250  0.6243
   20MOL   C312 6430   7.231   2.528   0.981  0.2471 -0.2680  0.0843
   20MOL   C313 6431   7.093   2.534   1.002  0.8065  0.5730  0.7557
   20MOL   C314 6432   6.788   2.583   0.950  0.3404  0.1729  0.0748
   20MOL   H315 6433   6.849   2.761   1.055  1.0875  0.8400  1.7422
   20MOL   H316 6434   7.052   2.861   1.061  0.7125 -0.5806  1.2391
   20MOL   H317 6435   7.417   2.641   0.965  0.7566 -3.4544  2.6033
   20MOL   H318 6436   7.274   2.434   0.950  0.8075 -0.1182  0.4072
   20MOL   H319 6437   7.038   2.440   1.003  0.8945  0.5109  0.1109
   20MOL   H320 6438   6.828   2.629   0.860  1.6068 -0.4743  0.2926
   20MOL   H321 6439   6.806   2.476   0.950  0.3585  0.1760  0.1670
   20MOL   H322 6440   6.683   2.609   0.964 -0.2258 -0.6192 -2.5721
   21MOL     C1 6441   0.559   4.124   3.216  0.2104 -0.2462  0.2340
   21MOL     C2 6442   0.453   4.229   3.200  0.4294  0.1379 -0.2720
   21MOL     C3 6443   0.339   4.200   3.118 -0.4397 -0.0275 -0.1747
   21MOL     C4 6444   0.232   4.286   3.104 -0.8589 -0.2846  0.7985
   21MOL    Cl5 6445   0.090   4.238   3.025 -0.5833 -0.2837 -0.0855
   21MOL     C6 6446   0.240   4.410   3.163 -0.8550  0.5900 -0.9882
   21MOL     C7 6447   0.348   4.443   3.247 -0.1451 -0.0806 -0.2131
   21MOL     C8 6448   0.457   4.354   3.267 -0.2364  0.9397  0.7411
   21MOL     C9 6449   0.495   3.992   3.270  0.2762 -1.1639  0.1694
   21MOL    H10 6450   0.634   4.169   3.281 -0.5665  0.5102  0.6107
   21MOL    H11 6451   0.319   4.108   3.064 -1.8908 -0.6591  1.4006
   21MOL    H12 6452   0.154   4.471   3.144 -1.9104 -1.2438 -2.2560
   21MOL    H13 6453   0.364   4.540   3.292  1.5327 -0.7131  0.6131
   21MOL    H14 6454   0.545   4.382   3.325  3.1344 -0.7031 -3.3008
   21MOL    H15 6455   0.484   3.996   3.378 -2.1793  0.1292 -0.0960
   21MOL    H16 6456   0.391   3.975   3.240 -1.3072  2.4910  3.1820
   21MOL    H17 6457   0.602   4.090   3.121 -2.1157 -4.0814  0.4449
   21MOL    C18 6458   0.568   3.858   3.227  0.8160  0.0266 -0.1954
   21MOL    C19 6459   0.714   3.851   3.281 -0.6724  0.5301 -0.1984
   21MOL    C20 6460   0.814   3.830   3.188 -0.4389 -0.3910  0.0686
   21MOL    C21 6461   0.944   3.853   3.227 -0.2911  0.4268 -0.0771
   21MOL   Cl22 6462   1.061   3.857   3.105  0.0955 -0.0850 -0.2856
   21MOL    C23 6463   0.981   3.884   3.358  0.2281  0.8688  0.0550
   21MOL    C24 6464   0.884   3.897   3.458  0.4816 -0.6366  0.5878
   21MOL    C25 6465   0.750   3.877   3.419  0.0696  0.7968  0.6254
   21MOL    C26 6466   0.491   3.735   3.281  0.1868 -0.1317  0.3942
   21MOL    H27 6467   0.585   3.845   3.120 -0.9813  1.2472 -0.6668
   21MOL    H28 6468   0.800   3.800   3.085 -0.0356  0.6668 -0.2988
   21MOL    H29 6469   1.087   3.897   3.377  0.4912  0.6985 -1.2826
   21MOL    H30 6470   0.902   3.941   3.555 -0.5872  0.8359  0.1436
   21MOL    H31 6471   0.673   3.894   3.493  1.1074 -0.4618  1.9984
   21MOL    H32 6472   0.516   3.714   3.385 -1.3312  0.5082  0.9007
   21MOL    H33 6473   0.384   3.753   3.276  0.1476 -0.5751 -0.3899
   21MOL    C34 6474   0.503   3.612   3.195  0.3467  0.0200 -0.4106
   21MOL    C35 6475   0.616   3.527   3.250 -0.9072  0.5824  0.4748
   21MOL    C36 6476   0.735   3.523   3.178 -0.2861 -0.3510  0.6161
   21MOL    C37 6477   0.842   3.441   3.215  0.5795  0.7324  0.4105
   21MOL   Cl38 6478   0.993   3.426   3.129  0.4496  0.0447  0.0814
   21MOL    C39 6479   0.835   3.364   3.335 -0.0849 -0.0626 -0.2062
   21MOL    C40 6480   0.716   3.359   3.411  0.0367  0.1293 -0.3620
   21MOL    C41 6481   0.608   3.439   3.361 -0.1220 -0.2264  0.3853
   21MOL    C42 6482   0.367   3.536   3.188  0.2594  0.2125 -0.4392
   21MOL    H43 6483   0.535   3.642   3.095 -1.9193 -1.0909 -1.5087
   21MOL    H44 6484   0.747   3.587   3.091  1.0166 -1.3921  0.0214
   21MOL    H45 6485   0.912   3.299   3.373  1.3415  1.8018  0.1517
   21MOL    H46 6486   0.704   3.286   3.489 -1.2886  1.1813  0.4431
   21MOL    H47 6487   0.512   3.442   3.410  0.1137 -0.0929  0.8406
   21MOL    H48 6488   0.342   3.507   3.290  0.7733  3.0027  0.5203
   21MOL    H49 6489   0.285   3.599   3.153 -0.9879 -1.0826  0.0853
   21MOL    C50 6490   0.381   3.402   3.104 -0.9267  0.3866 -0.4743
   21MOL    C51 6491   0.301   3.290   3.174  0.0052 -0.3367  0.2560
   21MOL    C52 6492   0.365   3.169   3.217  0.0656 -0.1141  0.5155
   21MOL    C53 6493   0.286   3.067   3.272  0.1129 -0.3415  0.1012
   21MOL   Cl54 6494   0.359   2.918   3.308  0.1057 -0.4363 -0.2341
   21MOL    C55 6495   0.144   3.077   3.276 -0.6028 -0.0874  0.4437
   21MOL    C56 6496   0.080   3.200   3.231  0.2085  0.6429 -0.1796
   21MOL    C57 6497   0.165   3.303   3.193 -0.0784 -0.4145  0.0597
   21MOL    C58 6498   0.353   3.420   2.957 -0.0939  0.0011  0.6135
   21MOL    H59 6499   0.487   3.375   3.111 -1.4018 -1.5341 -0.5970
   21MOL    H60 6500   0.472   3.163   3.198  0.0036  0.8452 -0.1787
   21MOL    H61 6501   0.093   2.992   3.320  0.1032  0.0047  1.4604
   21MOL    H62 6502   8.408   3.215   3.224  0.3272  1.0526 -1.1258
   21MOL    H63 6503   0.107   3.390   3.166 -0.1622  0.1770  2.0572
   21MOL    H64 6504   0.246   3.418   2.935  0.0887 -0.2136 -0.3060
   21MOL    H65 6505   0.373   3.519   2.916 -0.0748 -0.3742 -0.2976
   21MOL    C66 6506   0.432   3.324   2.868  0.4995  0.2108 -0.9858
   21MOL    C67 6507   0.359   3.292   2.739  0.6286  0.1647 -0.7862
   21MOL    C68 6508   0.305   3.167   2.724  0.7776  0.1785  0.0591
   21MOL    C69 6509   0.240   3.131   2.603  0.6091  0.0133 -0.1778
   21MOL   Cl70 6510   0.162   2.979   2.581 -0.0513 -0.2869 -0.0445
   21MOL    C71 6511   0.239   3.221   2.496  0.2122  0.1726 -0.2967
   21MOL    C72 6512   0.289   3.350   2.508  0.4789  0.3181 -0.6124
   21MOL    C73 6513   0.350   3.384   2.633 -0.1104 -0.1748 -0.2224
   21MOL    C74 6514   0.584   3.351   2.849 -0.0134 -0.0251 -0.9897
   21MOL    H75 6515   0.432   3.226   2.915 -0.5875  0.8711  0.4298
   21MOL    H76 6516   0.310   3.092   2.802 -1.6142  0.9119  0.9638
   21MOL    H77 6517   0.187   3.183   2.409 -1.2906  2.3099 -0.3760
   21MOL    H78 6518   0.281   3.423   2.429  2.6419  1.2031 -0.0547
   21MOL    H79 6519   0.401   3.480   2.636  1.0841 -0.8155  0.4016
   21MOL    H80 6520   0.607   3.395   2.752  0.5721  0.0339 -0.8238
   21MOL    H81 6521   0.621   3.415   2.928 -1.9859 -0.2703  0.1689
   21MOL    C82 6522   0.676   3.228   2.843 -0.0417 -0.1175 -0.5290
   21MOL    C83 6523   0.818   3.254   2.784  0.8414 -0.0955  0.3701
   21MOL    C84 6524   0.882   3.376   2.802  0.0744  1.2004  0.1744
   21MOL    C85 6525   1.014   3.397   2.762  0.6558  0.2287  0.1781
   21MOL   Cl86 6526   1.086   3.559   2.787 -0.0982  0.5098 -0.0269
   21MOL    C87 6527   1.084   3.293   2.702  0.2548 -0.0905 -0.2909
   21MOL    C88 6528   1.017   3.172   2.667  0.1857 -1.2100  0.1228
   21MOL    C89 6529   0.877   3.155   2.702  0.1294  0.7651  0.3219
   21MOL    C90 6530   0.693   3.164   2.983  0.3582  0.0534  0.0141
   21MOL    H91 6531   0.621   3.161   2.777 -0.0489 -2.0037  1.3338
   21MOL    H92 6532   0.836   3.457   2.857 -1.1925  1.5055 -1.2896
   21MOL    H93 6533   1.189   3.309   2.679  0.4011  0.1265  0.5271
   21MOL    H94 6534   1.075   3.101   2.610  0.5760  0.2406 -1.3245
   21MOL    H95 6535   0.824   3.070   2.662 -1.8242  2.1600 -0.1619
   21MOL    H96 6536   0.766   3.227   3.034  0.5210  0.4508 -0.7016
   21MOL    H97 6537   0.598   3.160   3.035  1.2459 -1.5372  1.5731
   21MOL    C98 6538   0.750   3.018   2.991 -0.1421  0.1509 -0.2127
   21MOL    C99 6539   0.820   3.000   3.127 -0.6057 -0.2139 -0.0740
   21MOL   C100 6540   0.754   3.009   3.252  0.4511 -0.1519  0.5372
   21MOL   C101 6541   0.827   2.995   3.372 -1.0081  0.2894  0.1432
   21MOL  Cl102 6542   0.758   3.008   3.532 -0.1094  0.0011 -0.0534
   21MOL   C103 6543   0.966   2.978   3.371  0.4248  0.0648 -0.4711
   21MOL   C104 6544   1.032   2.975   3.251  0.0138  0.1433 -0.2673
   21MOL   C105 6545   0.965   2.992   3.129 -0.2998  0.4677 -0.7266
   21MOL   C106 6546   0.646   2.905   2.967 -0.1422  0.1037  0.2578
   21MOL   H107 6547   0.828   3.005   2.916 -0.2776 -0.0090 -0.3284
   21MOL   H108 6548   0.646   3.015   3.262  0.5005 -2.3355  3.0436
   21MOL   H109 6549   1.015   2.964   3.467  0.5668  3.0252 -0.0636
   21MOL   H110 6550   1.136   2.946   3.244 -0.0159  0.2693 -1.2881
   21MOL   H111 6551   1.022   2.988   3.037  0.5389  0.2214 -0.2023
   21MOL   H112 6552   0.563   2.901   3.038  0.7168 -0.8526  1.2305
   21MOL   H113 6553   0.612   2.943   2.871 -1.0009 -2.0121 -0.2967
   21MOL   C114 6554   0.709   2.767   2.951  0.3987  1.0072  0.6736
   21MOL   C115 6555   0.744   2.705   3.086 -0.4020 -0.2969  0.2188
   21MOL   C116 6556   0.879   2.675   3.115  0.2988 -0.5782  0.9089
   21MOL   C117 6557   0.914   2.598   3.230  0.0612  0.7966  0.2774
   21MOL  Cl118 6558   1.083   2.546   3.242  0.2727 -0.1856  0.2375
   21MOL   C119 6559   0.816   2.561   3.324 -0.1410 -0.2376  0.0296
   21MOL   C120 6560   0.677   2.587   3.294 -0.5037  0.7790  0.3160
   21MOL   C121 6561   0.644   2.662   3.176 -0.0508 -0.0543 -0.5063
   21MOL   C122 6562   0.618   2.672   2.865  0.0009  0.2224 -0.3333
   21MOL   H123 6563   0.800   2.785   2.895  0.8771 -0.7872  0.8469
   21MOL   H124 6564   0.956   2.699   3.043 -0.7750 -1.5527 -0.5952
   21MOL   H125 6565   0.837   2.500   3.411  1.3990 -2.2623 -1.7024
   21MOL   H126 6566   0.599   2.563   3.365 -2.3530 -0.0755 -1.9486
   21MOL   H127 6567   0.540   2.690   3.163 -0.2915 -0.5692  0.2409
   21MOL   H128 6568   0.635   2.574   2.908 -1.3236 -0.2387 -0.8406
   21MOL   H129 6569   0.511   2.691   2.874  0.3900  3.2266 -1.3908
   21MOL   C130 6570   0.638   2.666   2.704 -0.0715 -0.2473 -0.2523
   21MOL   C131 6571   0.789   2.659   2.662  0.1112 -0.4254 -0.5306
   21MOL   C132 6572   0.858   2.756   2.580 -0.0060  0.9147 -0.6277
   21MOL   C133 6573   0.996   2.736   2.549  0.1769  0.9349  0.2684
   21MOL  Cl134 6574   1.079   2.859   2.464 -0.1629  0.1334 -0.3165
   21MOL   C135 6575   1.066   2.633   2.610 -0.3407  0.2519  0.0734
   21MOL   C136 6576   1.002   2.545   2.695 -0.0607  0.2264 -0.0946
   21MOL   C137 6577   0.865   2.557   2.723  0.7401 -0.0090 -0.2314
   21MOL   C138 6578   0.563   2.546   2.649  0.2829 -0.2412 -0.4975
   21MOL   H139 6579   0.605   2.768   2.682  3.4173  0.9250 -0.3415
   21MOL   H140 6580   0.813   2.848   2.548  1.7407  2.0919  0.1803
   21MOL   H141 6581   1.172   2.615   2.598  0.1351  1.6847  1.8382
   21MOL   H142 6582   1.064   2.466   2.734 -0.1058 -0.3417 -1.1483
   21MOL   H143 6583   0.828   2.481   2.790  0.5150 -0.5787 -0.9909
   21MOL   H144 6584   0.626   2.501   2.573  1.6754  0.3146  0.3067
   21MOL   H145 6585   0.559   2.466   2.724  0.7569  1.5588  1.4860
   21MOL   C146 6586   0.429   2.587   2.588  0.8045  0.0103 -0.0342
   21MOL   C147 6587   0.453   2.679   2.461 -0.6471  0.8685  0.4141
   21MOL   C148 6588   0.456   2.821   2.470 -0.8801 -0.4154  1.2049
   21MOL   C149 6589   0.491   2.903   2.361 -0.3710 -0.2691 -0.2893
   21MOL  Cl150 6590   0.520   3.073   2.394  0.4115  0.3722 -0.0741
   21MOL   C151 6591   0.514   2.844   2.236 -0.1121  0.0391 -0.2134
   21MOL   C152 6592   0.485   2.702   2.222 -0.0144 -1.0117 -0.1232
   21MOL   C153 6593   0.465   2.622   2.332 -0.4884 -0.2452  0.8593
   21MOL   C154 6594   0.342   2.456   2.552 -0.1818 -0.2525  0.4378
   21MOL   H155 6595   0.372   2.654   2.652 -1.3359 -1.4397 -0.3863
   21MOL   H156 6596   0.462   2.861   2.570  1.8624  0.6085  0.6840
   21MOL   H157 6597   0.538   2.901   2.147  0.5391  1.2633  0.7336
   21MOL   H158 6598   0.481   2.661   2.122  0.6103 -1.3733  0.0018
   21MOL   H159 6599   0.447   2.518   2.310 -0.5192  0.2183 -1.4884
   21MOL   H160 6600   0.403   2.374   2.513 -1.4415 -0.7727 -0.5033
   21MOL   H161 6601   0.326   2.406   2.647  0.0439  2.2495  1.8188
   21MOL   C162 6602   0.214   2.475   2.466  0.1819 -0.5727 -0.7008
   21MOL   C163 6603   0.153   2.341   2.442 -0.1383 -0.3344 -0.0250
   21MOL   C164 6604   0.146   2.235   2.538 -0.2665  0.8413 -0.2907
   21MOL   C165 6605   0.095   2.111   2.502  0.0495  0.6115 -0.1531
   21MOL  Cl166 6606   0.102   1.987   2.621 -0.0971 -0.1550 -0.4425
   21MOL   C167 6607   0.057   2.080   2.370 -0.6944 -1.1268 -0.8411
   21MOL   C168 6608   0.059   2.185   2.277  0.5962  0.4649  0.1419
   21MOL   C169 6609   0.109   2.311   2.308  0.5003 -0.1442  0.1429
   21MOL   C170 6610   0.107   2.580   2.518  0.0924 -0.5799  0.0817
   21MOL   H171 6611   0.242   2.510   2.367 -0.1182 -3.3597 -1.8005
   21MOL   H172 6612   0.168   2.264   2.640  0.3069  1.2995 -0.5429
   21MOL   H173 6613   0.030   1.979   2.341 -0.1518 -1.6322  0.3680
   21MOL   H174 6614   0.020   2.171   2.177 -0.6786  0.1297  0.6722
   21MOL   H175 6615   0.119   2.389   2.234  0.3027  0.7855  1.0737
   21MOL   H176 6616   0.164   2.669   2.541 -0.1136 -0.8218  1.5728
   21MOL   H177 6617   0.049   2.614   2.432 -0.7394 -1.6096  0.2171
   21MOL   C178 6618   0.021   2.551   2.645  0.1716  0.7454  0.3218
   21MOL   C179 6619   0.102   2.569   2.776  0.5285 -0.7998 -0.0672
   21MOL   C180 6620   0.157   2.698   2.810 -0.7662  0.1181  0.1597
   21MOL   C181 6621   0.228   2.708   2.932  0.3359 -0.3560 -0.6608
   21MOL  Cl182 6622   0.300   2.852   2.976 -0.0952  0.2186  0.0982
   21MOL   C183 6623   0.242   2.599   3.018 -0.1675  0.7075 -0.4414
   21MOL   C184 6624   0.183   2.479   2.988 -0.4213  0.0433 -0.2831
   21MOL   C185 6625   0.111   2.463   2.869  0.7511  0.0153 -0.6596
   21MOL   C186 6626   8.338   2.644   2.641  0.3259  0.0202  0.1359
   21MOL   H187 6627   8.417   2.450   2.642 -1.0266  1.2095  0.1118
   21MOL   H188 6628   0.132   2.783   2.749 -0.8075 -0.3032 -0.4130
   21MOL   H189 6629   0.303   2.603   3.107 -0.0481 -0.4147 -0.4719
   21MOL   H190 6630   0.191   2.387   3.043  1.8700 -0.6288 -1.6808
   21MOL   H191 6631   0.050   2.375   2.856  2.2848 -1.3256  0.9089
   21MOL   H192 6632   8.298   2.640   2.742 -0.8425 -0.0878 -0.3199
   21MOL   H193 6633   8.371   2.748   2.652 -0.6066  0.5672 -1.9026
   21MOL   C194 6634   8.222   2.609   2.534 -0.6582  0.1830  0.4507
   21MOL   C195 6635   8.144   2.482   2.579 -0.3551  0.6647 -0.3846
   21MOL   C196 6636   8.187   2.359   2.524  0.6434 -0.3183 -0.1008
   21MOL   C197 6637   8.130   2.242   2.573 -0.6091 -0.2815  0.2294
   21MOL  Cl198 6638   8.182   2.088   2.500  0.5196 -0.1743  0.3913
   21MOL   C199 6639   8.037   2.243   2.678  0.9548  0.0787  0.1877
   21MOL   C200 6640   7.989   2.362   2.727  0.2521 -0.5826 -0.0675
   21MOL   C201 6641   8.050   2.480   2.682 -0.1892  0.9139 -0.3224
   21MOL   C202 6642   8.131   2.734   2.503 -0.4168 -0.1810  0.3528
   21MOL   H203 6643   8.278   2.595   2.441  0.6088 -1.2979  1.4094
   21MOL   H204 6644   8.262   2.357   2.446 -1.4486 -1.4747 -2.1517
   21MOL   H205 6645   7.983   2.153   2.705 -1.2777  1.1671 -0.5286
   21MOL   H206 6646   7.910   2.364   2.801  1.3799  0.0502  1.1316
   21MOL   H207 6647   8.021   2.574   2.727 -0.3709  0.6872  0.0316
   21MOL   H208 6648   8.052   2.694   2.439  1.3718  0.0393 -2.0564
   21MOL   H209 6649   8.086   2.762   2.598  0.6620  0.4310  0.6950
   21MOL   C210 6650   8.198   2.856   2.445 -0.4393 -0.7814  0.4000
   21MOL   C211 6651   8.238   2.828   2.295 -0.4076  0.7955 -0.1558
   21MOL   C212 6652   8.377   2.823   2.250 -0.4222  0.4864 -0.3344
   21MOL   C213 6653   8.409   2.798   2.117  0.0227 -0.2193 -0.3340
   21MOL  Cl214 6654   0.137   2.790   2.067 -0.1152  0.0387  0.0626
   21MOL   C215 6655   8.304   2.777   2.023  0.0120  0.0912  0.0211
   21MOL   C216 6656   8.167   2.787   2.066 -0.3442  0.7139 -0.1382
   21MOL   C217 6657   8.136   2.817   2.199 -1.1609 -0.1184 -0.2312
   21MOL   C218 6658   8.102   2.978   2.450 -0.4705  0.1748 -0.1179
   21MOL   H219 6659   8.294   2.887   2.486  0.0430  0.2304 -1.4269
   21MOL   H220 6660   0.025   2.844   2.316  1.5273 -0.6205 -2.3487
   21MOL   H221 6661   8.333   2.740   1.926  0.6545  0.0102  0.2429
   21MOL   H222 6662   8.098   2.751   1.990  1.4351 -0.2183 -1.3625
   21MOL   H223 6663   8.033   2.819   2.230 -0.3002  0.6737  2.7731
   21MOL   H224 6664   8.138   3.062   2.390  0.9371  0.4745  1.1339
   21MOL   H225 6665   8.006   2.946   2.411  0.4933 -2.5177 -0.3857
   21MOL   C226 6666   8.081   3.025   2.596 -0.1224 -0.1297 -0.0675
   21MOL   C227 6667   8.215   3.071   2.670 -0.5991  0.3610  0.8471
   21MOL   C228 6668   8.259   2.999   2.779  0.5115 -0.2557 -0.1022
   21MOL   C229 6669   8.366   3.056   2.864 -0.0642  0.5318 -0.2134
   21MOL  Cl230 6670   8.406   2.969   3.007  0.2859  0.2441 -0.2584
   21MOL   C231 6671   0.001   3.167   2.825 -0.5593  0.3745 -0.0120
   21MOL   C232 6672   8.399   3.225   2.704 -0.1796 -0.0908 -0.4874
   21MOL   C233 6673   8.287   3.182   2.628 -0.2298 -0.1486  0.2247
   21MOL   C234 6674   7.970   3.139   2.599 -0.9201 -0.3907  0.1020
   21MOL   H235 6675   8.033   2.946   2.653 -2.8269 -0.4914 -2.7036
   21MOL   H236 6676   8.212   2.910   2.819 -0.9421  1.2547  1.6713
   21MOL   H237 6677   0.070   3.208   2.898 -0.3579 -0.2803  0.1689
   21MOL   H238 6678   0.020   3.310   2.668 -1.5705  0.5107 -1.3020
   21MOL   H239 6679   8.266   3.235   2.536  0.5743 -1.3100 -0.6519
   21MOL   H240 6680   8.009   3.223   2.541  4.5229 -1.2393  2.1992
   21MOL   H241 6681   7.885   3.102   2.542 -2.3580 -0.7020  2.4033
   21MOL   C242 6682   7.930   3.183   2.741  1.1186 -0.9629 -0.1648
   21MOL   C243 6683   7.914   3.339   2.726 -0.0161 -0.2774 -0.0240
   21MOL   C244 6684   7.787   3.398   2.697  0.7662  0.5422  0.0204
   21MOL   C245 6685   7.767   3.537   2.702  1.1162 -0.8449 -0.3998
   21MOL  Cl246 6686   7.616   3.605   2.692  0.0590  0.1462 -0.1100
   21MOL   C247 6687   7.872   3.625   2.731 -0.4238  0.2409 -0.1754
   21MOL   C248 6688   7.989   3.570   2.774 -0.1107  0.1305  0.0696
   21MOL   C249 6689   8.012   3.429   2.762  0.0168  0.0519  0.3529
   21MOL   C250 6690   7.801   3.110   2.793  0.0009  0.6881  0.2560
   21MOL   H251 6691   8.010   3.162   2.812  1.2897  0.9858  0.2339
   21MOL   H252 6692   7.702   3.335   2.682  1.0289 -0.0124  0.8692
   21MOL   H253 6693   7.854   3.732   2.725 -0.9081  0.1776  0.1380
   21MOL   H254 6694   8.076   3.627   2.806  0.0425 -0.7928  1.3202
   21MOL   H255 6695   8.108   3.391   2.792 -0.1999  0.1845  1.2238
   21MOL   H256 6696   7.707   3.131   2.742 -0.9637 -2.1232  0.8001
   21MOL   H257 6697   7.816   3.003   2.781  1.3457  0.5569  2.7777
   21MOL   C258 6698   7.781   3.118   2.944  0.9328 -0.2649  0.0601
   21MOL   C259 6699   7.910   3.123   3.025  0.9286 -0.4221 -0.7956
   21MOL   C260 6700   7.960   3.245   3.069  0.1161 -0.3921  0.0888
   21MOL   C261 6701   8.070   3.244   3.162  1.0205 -0.5923  0.0072
   21MOL  Cl262 6702   8.106   3.400   3.237 -0.1507  0.1082 -0.2489
   21MOL   C263 6703   8.133   3.129   3.200  0.0920  0.5413 -0.7002
   21MOL   C264 6704   8.089   3.012   3.146  0.0333  0.6201  0.5407
   21MOL   C265 6705   7.978   3.006   3.060  0.9230 -0.0964 -0.3811
   21MOL   C266 6706   7.684   3.230   2.987 -0.4978 -0.3007  0.0658
   21MOL   H267 6707   7.725   3.027   2.967 -0.2104  0.0966 -1.2776
   21MOL   H268 6708   7.915   3.340   3.044  0.6602 -0.6054 -1.7881
   21MOL   H269 6709   8.206   3.135   3.279 -0.9704  2.7439  0.1634
   21MOL   H270 6710   8.153   2.927   3.167 -0.1387 -0.6197 -3.5960
   21MOL   H271 6711   7.945   2.911   3.021  0.1785 -1.2164  2.8353
   21MOL   H272 6712   7.701   3.322   2.931  1.1573 -1.8856 -2.1360
   21MOL   H273 6713   7.587   3.198   2.947  1.0216 -0.5599 -3.5384
   21MOL   C274 6714   7.655   3.254   3.141  0.2733  0.7191 -0.3155
   21MOL   C275 6715   7.548   3.363   3.145  0.2549 -0.9983 -0.2546
   21MOL   C276 6716   7.425   3.353   3.079  0.3246 -0.8396 -0.3403
   21MOL   C277 6717   7.325   3.453   3.103  0.4593  0.1234  0.7496
   21MOL  Cl278 6718   7.174   3.447   3.021 -0.2417  0.4198  0.2047
   21MOL   C279 6719   7.351   3.562   3.188 -0.2398  0.0261 -0.0166
   21MOL   C280 6720   7.477   3.576   3.251  0.1294  0.8173  0.5157
   21MOL   C281 6721   7.572   3.473   3.233  0.4052 -0.5652 -0.2336
   21MOL   C282 6722   7.611   3.125   3.207 -0.0623 -0.4748  0.4923
   21MOL   H283 6723   7.737   3.286   3.206 -0.3085  0.3538  0.6138
   21MOL   H284 6724   7.404   3.276   3.006  0.4838 -2.6680  1.4840
   21MOL   H285 6725   7.286   3.648   3.200  2.1067  2.1403 -1.8481
   21MOL   H286 6726   7.491   3.655   3.323 -0.2009 -1.0612  2.6878
   21MOL   H287 6727   7.664   3.477   3.290  0.7095 -1.1636 -0.6818
   21MOL   H288 6728   7.512   3.119   3.252 -0.0908 -0.0192  0.4923
   21MOL   H289 6729   7.616   3.036   3.143  0.2527  0.8106 -1.3170
   21MOL   C290 6730   7.700   3.083   3.331  0.2561 -0.5914 -0.1133
   21MOL   C291 6731   7.669   3.179   3.441 -0.4578  0.1305  0.3680
   21MOL   C292 6732   7.541   3.192   3.501 -0.3371 -0.3724  0.2207
   21MOL   C293 6733   7.523   3.274   3.613 -1.2722 -0.8552 -0.0099
   21MOL  Cl294 6734   7.377   3.271   3.697 -0.0262  0.0847  0.2604
   21MOL   C295 6735   7.632   3.356   3.651  0.5894 -0.2080 -0.1244
   21MOL   C296 6736   7.755   3.354   3.588  0.0720 -0.4302  0.3162
   21MOL   C297 6737   7.777   3.261   3.487  0.0767  0.3638 -0.0307
   21MOL   C298 6738   7.673   2.934   3.370 -0.1396 -0.2237 -0.6101
   21MOL   H299 6739   7.800   3.097   3.291 -0.3694  0.4735 -1.3558
   21MOL   H300 6740   7.457   3.135   3.464 -0.3614 -1.5742  2.0414
   21MOL   H301 6741   7.635   3.425   3.734 -0.1173  0.2696 -0.4827
   21MOL   H302 6742   7.841   3.402   3.633  0.8366 -0.8786 -0.6456
   21MOL   H303 6743   7.879   3.247   3.455  0.4271  1.7470  0.4061
   21MOL   H304 6744   7.564   2.930   3.380 -0.3353  0.2205 -2.4741
   21MOL   H305 6745   7.693   2.857   3.296 -2.4614  0.0449 -1.5656
   21MOL   C306 6746   7.725   2.885   3.503 -0.4796  0.0260  0.2493
   21MOL   C307 6747   7.651   2.759   3.540  0.5017  0.1474  0.4074
   21MOL   C308 6748   7.674   2.637   3.475 -0.8383 -0.0569 -0.0367
   21MOL   C309 6749   7.599   2.521   3.491  0.4662 -0.3152 -0.1001
   21MOL  Cl310 6750   7.633   2.371   3.408  0.1713 -0.2196  0.1569
   21MOL   C311 6751   7.478   2.532   3.570 -0.6859 -0.3087  0.0163
   21MOL   C312 6752   7.449   2.646   3.640 -0.1039  0.1659 -0.6734
   21MOL   C313 6753   7.536   2.760   3.626 -0.2006  0.1209 -0.2925
   21MOL   C314 6754   7.878   2.860   3.493  0.6445  0.3283 -0.5459
   21MOL   H315 6755   7.702   2.962   3.576  1.8354  0.5875  0.4326
   21MOL   H316 6756   7.753   2.638   3.402  1.1192  0.6876  2.0521
   21MOL   H317 6757   7.416   2.445   3.581  0.2030 -0.9169  0.2833
   21MOL   H318 6758   7.370   2.662   3.711  0.1469 -0.5843 -0.2184
   21MOL   H319 6759   7.506   2.853   3.672  3.0720  0.9165  0.3568
   21MOL   H320 6760   7.916   2.798   3.574 -0.3643  0.0475 -0.2818
   21MOL   H321 6761   7.889   2.799   3.403  1.8124 -0.9787  0.4597
   21MOL   H322 6762   7.937   2.951   3.485 -0.4236  1.0782 -0.0563
   22MOL     C1 6763   6.848   5.271   0.724 -0.4658 -0.9312  0.4069
   22MOL     C2 6764   6.946   5.378   0.675 -0.3097 -0.3294  0.4836
   22MOL     C3 6765   6.905   5.470   0.577 -1.0966 -0.1884 -0.6442
   22MOL     C4 6766   6.985   5.582   0.549  0.6945 -0.2560  0.0547
   22MOL    Cl5 6767   6.911   5.705   0.449  0.1561 -0.0848  0.0273
   22MOL     C6 6768   7.116   5.595   0.599  0.0814  0.4670  0.2963
   22MOL     C7 6769   7.159   5.504   0.692  0.0250 -0.1558 -0.2769
   22MOL     C8 6770   7.076   5.395   0.729  0.8597 -0.6140  0.7023
   22MOL     C9 6771   6.909   5.139   0.726 -0.8491 -0.2925  0.9002
   22MOL    H10 6772   6.754   5.273   0.668 -0.6779 -0.9090  0.7585
   22MOL    H11 6773   6.811   5.460   0.526 -1.7205 -1.3617  0.6908
   22MOL    H12 6774   7.170   5.677   0.554 -0.4779  0.0229 -1.1975
   22MOL    H13 6775   7.257   5.509   0.737 -0.1038 -1.3124  0.1305
   22MOL    H14 6776   7.104   5.331   0.811  0.1798 -1.2910  0.4124
   22MOL    H15 6777   6.906   5.082   0.633  1.1144  0.8124  0.1259
   22MOL    H16 6778   7.015   5.131   0.751 -0.8728 -1.4204  0.6861
   22MOL    H17 6779   6.816   5.306   0.822  0.0302  0.0688  0.2155
   22MOL    C18 6780   6.837   5.052   0.831 -0.4233  0.0752 -0.5431
   22MOL    C19 6781   6.707   5.005   0.780 -0.2690  0.2905  0.3546
   22MOL    C20 6782   6.708   4.909   0.673 -0.1655 -0.5249  0.3321
   22MOL    C21 6783   6.585   4.866   0.614 -0.5666 -0.1901 -0.1069
   22MOL   Cl22 6784   6.567   4.765   0.481 -0.2048  0.4712  0.2482
   22MOL    C23 6785   6.465   4.916   0.661  0.1641 -0.4515  0.8672
   22MOL    C24 6786   6.466   5.016   0.765  0.1262 -0.0536  0.5525
   22MOL    C25 6787   6.587   5.061   0.825 -0.0589 -0.3531  0.4472
   22MOL    C26 6788   6.917   4.941   0.901  0.2196 -0.0557 -0.2674
   22MOL    H27 6789   6.834   5.121   0.916 -0.1531  1.6039 -1.7627
   22MOL    H28 6790   6.794   4.880   0.614 -1.7600 -0.6322 -2.0324
   22MOL    H29 6791   6.374   4.883   0.612 -0.0754 -0.7915  1.5379
   22MOL    H30 6792   6.369   5.052   0.796 -0.9010 -2.2453 -0.0441
   22MOL    H31 6793   6.589   5.135   0.904  2.5118  1.5702 -1.3529
   22MOL    H32 6794   6.955   4.870   0.827 -1.5833 -0.3578 -0.9398
   22MOL    H33 6795   6.997   5.002   0.943 -0.1722  1.8997 -2.2375
   22MOL    C34 6796   6.843   4.857   1.009  0.0346  0.0343  0.0364
   22MOL    C35 6797   6.929   4.735   1.053  1.1312  0.0328  0.6122
   22MOL    C36 6798   7.019   4.738   1.162 -0.4014 -0.6694 -0.3198
   22MOL    C37 6799   7.106   4.630   1.188 -0.3551 -0.3546 -0.5880
   22MOL   Cl38 6800   7.237   4.648   1.294 -0.2317  0.0216  0.6134
   22MOL    C39 6801   7.092   4.511   1.113  0.7172  0.3593 -0.4952
   22MOL    C40 6802   7.001   4.506   1.003  0.0766 -1.3061 -0.1007
   22MOL    C41 6803   6.925   4.619   0.976  0.4955 -0.2245 -0.6601
   22MOL    C42 6804   6.799   4.944   1.128 -0.9731 -0.5082  0.8282
   22MOL    H43 6805   6.752   4.812   0.970  0.5343 -1.0793  0.1402
   22MOL    H44 6806   7.028   4.832   1.215 -0.2740  0.6069 -2.5585
   22MOL    H45 6807   7.152   4.424   1.133 -1.0891 -1.1304 -1.4354
   22MOL    H46 6808   6.995   4.422   0.936 -0.0889 -1.8562  0.5981
   22MOL    H47 6809   6.861   4.607   0.889 -1.1647  0.3398  0.4630
   22MOL    H48 6810   6.888   4.995   1.166  0.5532 -3.1159  0.8571
   22MOL    H49 6811   6.733   5.018   1.081  1.4156  1.0735 -0.1192
   22MOL    C50 6812   6.732   4.879   1.257  0.2593  0.0033  0.5019
   22MOL    C51 6813   6.728   4.990   1.360 -0.3496  0.0540 -0.5423
   22MOL    C52 6814   6.632   5.098   1.356 -0.0201  0.3992  0.2108
   22MOL    C53 6815   6.631   5.204   1.455 -0.3730 -0.5757  0.7531
   22MOL   Cl54 6816   6.519   5.337   1.455  0.1799  0.2789  0.7958
   22MOL    C55 6817   6.722   5.195   1.563  0.4152 -0.3156 -0.3383
   22MOL    C56 6818   6.810   5.088   1.568  0.4786 -0.1708 -0.2072
   22MOL    C57 6819   6.822   4.998   1.462 -0.2953 -0.7604  1.5513
   22MOL    C58 6820   6.587   4.823   1.237 -0.9871 -1.0345 -0.3507
   22MOL    H59 6821   6.790   4.796   1.296  0.8960  0.9459  1.5602
   22MOL    H60 6822   6.558   5.112   1.278 -0.5108  3.1947  1.1226
   22MOL    H61 6823   6.728   5.261   1.649  0.0660 -0.8925  0.1287
   22MOL    H62 6824   6.878   5.079   1.651 -0.7485  0.8303  0.9262
   22MOL    H63 6825   6.898   4.923   1.475  0.2742 -0.3989  0.3261
   22MOL    H64 6826   6.522   4.828   1.325 -0.8656 -2.1849 -0.1863
   22MOL    H65 6827   6.546   4.882   1.155 -0.2187 -0.0033 -0.0097
   22MOL    C66 6828   6.582   4.676   1.194  0.7154  1.1027 -0.0262
   22MOL    C67 6829   6.623   4.591   1.314 -0.7445  0.1350  0.0118
   22MOL    C68 6830   6.550   4.581   1.439 -0.1059  0.0673  0.7042
   22MOL    C69 6831   6.598   4.509   1.545  0.4731 -0.4342  0.4318
   22MOL   Cl70 6832   6.504   4.506   1.690 -0.4207  0.0616 -0.2208
   22MOL    C71 6833   6.728   4.442   1.536  0.5234  0.0182 -0.3134
   22MOL    C72 6834   6.803   4.452   1.416  0.3171 -0.0274 -0.6580
   22MOL    C73 6835   6.753   4.520   1.305 -0.7055 -0.4328 -0.2680
   22MOL    C74 6836   6.450   4.624   1.147  0.0787  0.4058  0.2246
   22MOL    H75 6837   6.656   4.660   1.115  0.5558  0.3017 -0.0201
   22MOL    H76 6838   6.452   4.622   1.456  1.0777  3.2332  0.1983
   22MOL    H77 6839   6.759   4.394   1.628  1.1898  0.1511 -0.4605
   22MOL    H78 6840   6.894   4.395   1.405  0.6461  0.3691 -0.0099
   22MOL    H79 6841   6.822   4.525   1.223  0.1678  0.7940  0.5181
   22MOL    H80 6842   6.459   4.517   1.127  0.9013  0.2569  1.3834
   22MOL    H81 6843   6.377   4.637   1.226 -1.3645 -1.1916 -0.7897
   22MOL    C82 6844   6.386   4.690   1.016  0.2174 -0.5009 -0.1520
   22MOL    C83 6845   6.396   4.590   0.902 -0.9491  0.4231 -0.1688
   22MOL    C84 6846   6.294   4.488   0.892 -0.3961  0.5001  0.1238
   22MOL    C85 6847   6.300   4.401   0.784 -0.4181 -0.3882  0.5538
   22MOL   Cl86 6848   6.169   4.293   0.770  0.0086 -0.4307 -0.0433
   22MOL    C87 6849   6.398   4.417   0.679 -0.1305  0.4855 -0.5576
   22MOL    C88 6850   6.503   4.511   0.700 -0.1342 -0.3528 -0.6285
   22MOL    C89 6851   6.496   4.601   0.808 -0.7060 -0.8803  0.1026
   22MOL    C90 6852   6.237   4.730   1.053  0.3291 -0.8461  0.6815
   22MOL    H91 6853   6.429   4.783   0.981 -0.8536 -0.2670 -0.8451
   22MOL    H92 6854   6.215   4.490   0.966 -0.4232 -0.1358  0.1170
   22MOL    H93 6855   6.406   4.361   0.587  1.3326 -1.1637  0.5556
   22MOL    H94 6856   6.580   4.526   0.626 -1.4781  0.0679 -1.9638
   22MOL    H95 6857   6.572   4.676   0.816 -0.6464 -0.6706 -2.0545
   22MOL    H96 6858   6.172   4.648   1.082  0.2820 -0.9849  0.1772
   22MOL    H97 6859   6.244   4.768   1.155 -0.5845  0.9922  0.0916
   22MOL    C98 6860   6.162   4.833   0.962 -0.6783  0.2979  0.3962
   22MOL    C99 6861   6.089   4.772   0.848 -1.3047 -0.0282 -0.0926
   22MOL   C100 6862   6.004   4.661   0.860 -0.0703  0.0670  0.0921
   22MOL   C101 6863   5.953   4.597   0.746 -0.4355  0.0114  0.5483
   22MOL  Cl102 6864   5.872   4.442   0.753 -0.3377  0.0696 -0.5793
   22MOL   C103 6865   5.985   4.645   0.617 -0.3010 -0.3767  0.5000
   22MOL   C104 6866   6.055   4.773   0.609 -0.2673  0.2481  0.6131
   22MOL   C105 6867   6.103   4.837   0.726  0.6084  0.0079 -0.7950
   22MOL   C106 6868   6.054   4.915   1.032  0.1062  0.1942 -0.2704
   22MOL   H107 6869   6.241   4.894   0.918 -0.3444  0.3116  0.9967
   22MOL   H108 6870   5.988   4.613   0.955 -0.1437 -0.1038 -0.0073
   22MOL   H109 6871   5.941   4.599   0.530 -2.5280  1.2908  0.6911
   22MOL   H110 6872   6.074   4.812   0.510  1.6522  0.0746  0.8992
   22MOL   H111 6873   6.177   4.916   0.721  1.4821 -0.7026  0.7833
   22MOL   H112 6874   5.993   4.972   0.962  0.3067  1.0852  0.2778
   22MOL   H113 6875   5.983   4.849   1.082 -0.0332  0.3211 -0.3012
   22MOL   C114 6876   6.109   5.021   1.130  0.9166  0.2359 -0.3793
   22MOL   C115 6877   6.180   5.142   1.068 -0.6228  0.3798 -0.7900
   22MOL   C116 6878   6.308   5.191   1.114  0.1988  1.0101  0.4492
   22MOL   C117 6879   6.362   5.309   1.060  0.1685  0.4344 -0.3348
   22MOL  Cl118 6880   6.528   5.360   1.100  0.3615  0.2677  0.1664
   22MOL   C119 6881   6.292   5.379   0.959 -0.1189 -0.4730 -0.1438
   22MOL   C120 6882   6.166   5.329   0.916  0.5377 -0.2989 -0.2512
   22MOL   C121 6883   6.116   5.212   0.967 -0.2630  0.0094 -0.7810
   22MOL   C122 6884   6.010   5.073   1.232 -0.2242  0.3199 -0.3530
   22MOL   H123 6885   6.189   4.977   1.190  0.0468 -1.2898 -0.2984
   22MOL   H124 6886   6.356   5.151   1.202 -0.4850 -0.0688  0.3366
   22MOL   H125 6887   6.332   5.469   0.915 -1.2610 -0.3994 -1.0681
   22MOL   H126 6888   6.099   5.380   0.848  0.5462  2.0867  1.4794
   22MOL   H127 6889   6.016   5.187   0.933 -1.1223  1.9240  0.2573
   22MOL   H128 6890   6.054   5.149   1.297  0.2174 -2.1229  2.2709
   22MOL   H129 6891   5.927   5.118   1.178 -1.3290 -0.6599  0.5145
   22MOL   C130 6892   5.976   4.968   1.340 -0.7592  0.2141  0.7727
   22MOL   C131 6893   6.100   4.913   1.416 -0.0160 -0.0184  0.3342
   22MOL   C132 6894   6.182   5.008   1.484 -0.0043 -0.4248 -0.2157
   22MOL   C133 6895   6.291   4.965   1.555 -0.9538  0.5819  0.3341
   22MOL  Cl134 6896   6.374   5.081   1.653 -0.2052 -0.3504  0.1414
   22MOL   C135 6897   6.314   4.828   1.570  0.2189 -0.3425 -0.9037
   22MOL   C136 6898   6.231   4.736   1.513 -0.0311  0.1655 -0.4681
   22MOL   C137 6899   6.126   4.775   1.429  0.0954  0.0196 -0.2987
   22MOL   C138 6900   5.878   5.034   1.441 -0.1989  0.0898 -0.4624
   22MOL   H139 6901   5.930   4.877   1.301  1.0844 -0.2510 -0.3827
   22MOL   H140 6902   6.154   5.113   1.483 -1.7426 -0.8798 -0.6323
   22MOL   H141 6903   6.405   4.800   1.623 -1.2870 -1.6055  1.1081
   22MOL   H142 6904   6.246   4.631   1.529 -0.8226  0.3744  1.8519
   22MOL   H143 6905   6.066   4.696   1.387 -0.7626 -0.3646  1.5888
   22MOL   H144 6906   5.892   4.980   1.535 -0.3730  0.5552 -0.1685
   22MOL   H145 6907   5.902   5.137   1.465  0.2135  0.0689 -0.7929
   22MOL   C146 6908   5.724   5.020   1.397  0.6424  0.1245 -0.2883
   22MOL   C147 6909   5.684   4.871   1.408 -0.2123 -0.6630  0.1092
   22MOL   C148 6910   5.674   4.800   1.289 -1.2687  0.3390  0.1530
   22MOL   C149 6911   5.637   4.666   1.279 -0.5412 -0.0832 -0.3582
   22MOL  Cl150 6912   5.617   4.592   1.123  0.5118  0.1945  0.3898
   22MOL   C151 6913   5.605   4.599   1.399  0.2922 -0.1441  0.1194
   22MOL   C152 6914   5.626   4.658   1.523  0.2768 -0.5190 -0.0086
   22MOL   C153 6915   5.662   4.800   1.531 -0.0919  0.0909  0.4006
   22MOL   C154 6916   5.626   5.107   1.475 -0.4469 -0.0798 -0.1695
   22MOL   H155 6917   5.721   5.053   1.294  0.4035 -0.1820 -0.3797
   22MOL   H156 6918   5.678   4.849   1.193 -0.6891 -2.5757 -1.3762
   22MOL   H157 6919   5.563   4.500   1.387 -2.0229  0.8378 -0.0916
   22MOL   H158 6920   5.605   4.604   1.614  0.1418 -1.1919 -0.4390
   22MOL   H159 6921   5.672   4.845   1.629 -0.7865 -3.3542  2.1307
   22MOL   H160 6922   5.525   5.066   1.472 -1.0079  1.3443 -1.9534
   22MOL   H161 6923   5.638   5.121   1.582  0.4604 -0.5340 -0.2143
   22MOL   C162 6924   5.614   5.249   1.414  0.4285  0.8749 -0.8792
   22MOL   C163 6925   5.528   5.236   1.290  0.3978  0.0625 -0.5224
   22MOL   C164 6926   5.384   5.219   1.296 -0.4637 -0.3755  0.3230
   22MOL   C165 6927   5.319   5.223   1.170 -0.1197 -0.0992 -0.0173
   22MOL  Cl166 6928   5.147   5.229   1.164  0.0346 -0.1474 -0.4016
   22MOL   C167 6929   5.386   5.227   1.046  0.1675  0.3174  0.4023
   22MOL   C168 6930   5.525   5.230   1.036  0.7597 -0.7863 -0.4809
   22MOL   C169 6931   5.593   5.233   1.156  0.1295 -0.0668  0.5170
   22MOL   C170 6932   5.565   5.372   1.500  0.0063 -0.3426 -0.5025
   22MOL   H171 6933   5.721   5.260   1.393  1.0412  1.5175  2.2402
   22MOL   H172 6934   5.324   5.225   1.385  0.4057  1.3921  0.8208
   22MOL   H173 6935   5.326   5.224   0.956 -0.3971  0.3256  0.7737
   22MOL   H174 6936   5.583   5.239   0.945 -0.0189 -1.0359 -1.0013
   22MOL   H175 6937   5.701   5.237   1.152  0.0752  0.7496 -0.3532
   22MOL   H176 6938   5.556   5.458   1.433  2.0723  0.4907  0.2777
   22MOL   H177 6939   5.473   5.355   1.556  0.7750  3.7252  2.1500
   22MOL   C178 6940   5.659   5.408   1.618  0.2257 -0.3158 -0.2248
   22MOL   C179 6941   5.811   5.390   1.591 -0.4800 -0.5434  0.1138
   22MOL   C180 6942   5.869   5.457   1.479 -1.1673 -1.3915  0.6536
   22MOL   C181 6943   6.002   5.437   1.445  0.5545  0.2051  0.6718
   22MOL  Cl182 6944   6.053   5.493   1.290 -0.1873 -0.2344  0.1130
   22MOL   C183 6945   6.087   5.367   1.533  0.4541  0.0494  0.1838
   22MOL   C184 6946   6.035   5.322   1.651  0.7855  0.6468  0.4106
   22MOL   C185 6947   5.900   5.333   1.685  0.4230 -0.7147  0.3369
   22MOL   C186 6948   5.619   5.548   1.661 -0.5202  0.0630  0.0298
   22MOL   H187 6949   5.632   5.349   1.706 -1.2623  0.4158 -0.1709
   22MOL   H188 6950   5.807   5.517   1.413  0.4904 -1.2299 -0.7936
   22MOL   H189 6951   6.189   5.356   1.499 -0.9649 -0.6010 -4.2389
   22MOL   H190 6952   6.096   5.256   1.711 -0.2212 -0.8493 -0.1796
   22MOL   H191 6953   5.869   5.296   1.782 -1.1712 -0.3733 -0.0238
   22MOL   H192 6954   5.711   5.605   1.661  0.0677 -0.8674 -1.0829
   22MOL   H193 6955   5.558   5.584   1.579 -0.2353 -1.4675 -0.8737
   22MOL   C194 6956   5.558   5.557   1.805  0.1906 -0.3583 -0.2281
   22MOL   C195 6957   5.433   5.470   1.820 -0.1997  0.2375 -0.3071
   22MOL   C196 6958   5.423   5.379   1.933 -0.5445  0.7556 -0.5155
   22MOL   C197 6959   5.306   5.303   1.944  0.3191 -1.0165  0.0179
   22MOL  Cl198 6960   5.276   5.200   2.073 -0.0508 -0.0748  0.3657
   22MOL   C199 6961   5.201   5.318   1.851  0.2665 -0.2575 -0.6313
   22MOL   C200 6962   5.206   5.405   1.743  0.0189 -0.4214  0.3097
   22MOL   C201 6963   5.325   5.484   1.730  0.8086  0.1156 -0.3262
   22MOL   C202 6964   5.668   5.539   1.915  0.0570  0.1015 -0.4291
   22MOL   H203 6965   5.522   5.658   1.822  0.1758 -0.7710  2.4447
   22MOL   H204 6966   5.497   5.380   2.011 -0.7568  0.7598 -0.3137
   22MOL   H205 6967   5.106   5.267   1.852 -1.6627  3.1897 -0.8800
   22MOL   H206 6968   5.124   5.410   1.673  0.8021 -2.3603 -0.7832
   22MOL   H207 6969   5.331   5.560   1.654 -3.3634 -0.6790 -1.6326
   22MOL   H208 6970   5.624   5.535   2.015 -0.3630  0.7443 -0.5813
   22MOL   H209 6971   5.739   5.457   1.904  3.7566  3.1769 -0.6812
   22MOL   C210 6972   5.770   5.656   1.933  0.1305  0.4624  0.0565
   22MOL   C211 6973   5.707   5.791   1.933 -0.4578 -0.0694  0.0947
   22MOL   C212 6974   5.632   5.850   2.036  0.1046 -0.3229 -0.7976
   22MOL   C213 6975   5.580   5.975   2.031  0.2334  0.0702 -0.1127
   22MOL  Cl214 6976   5.488   6.034   2.163 -0.5254  0.0919  0.2511
   22MOL   C215 6977   5.597   6.053   1.916 -0.5552 -0.4730  0.1298
   22MOL   C216 6978   5.662   5.994   1.801  0.2801 -0.2464  0.1206
   22MOL   C217 6979   5.710   5.866   1.811 -0.0956  0.3571  0.0698
   22MOL   C218 6980   5.862   5.639   2.051 -0.2732 -0.3742 -0.0493
   22MOL   H219 6981   5.837   5.653   1.848 -0.5813  0.1376 -0.5014
   22MOL   H220 6982   5.624   5.802   2.133  1.7449 -0.9163 -0.9486
   22MOL   H221 6983   5.544   6.146   1.903 -0.6407 -0.6858 -1.0580
   22MOL   H222 6984   5.665   6.044   1.705 -0.5916 -1.6953 -0.6710
   22MOL   H223 6985   5.759   5.820   1.727  0.2138  0.6205  0.1061
   22MOL   H224 6986   5.890   5.739   2.083 -1.8035 -0.3926  1.4838
   22MOL   H225 6987   5.801   5.607   2.136  1.3729 -0.0339  1.2747
   22MOL   C226 6988   5.988   5.544   2.030 -0.0925 -0.2929  0.3907
   22MOL   C227 6989   6.109   5.628   1.981  0.0125 -0.4638  0.1163
   22MOL   C228 6990   6.168   5.720   2.073  0.5754 -0.1154  1.0483
   22MOL   C229 6991   6.280   5.793   2.032 -0.1786 -0.2474 -0.2693
   22MOL  Cl230 6992   6.366   5.893   2.140  0.5660 -0.0249  0.2172
   22MOL   C231 6993   6.327   5.772   1.904 -0.4003 -0.6703 -0.3478
   22MOL   C232 6994   6.279   5.678   1.814  0.1767 -0.2985 -0.4010
   22MOL   C233 6995   6.167   5.600   1.857  0.1775 -0.0566 -0.6914
   22MOL   C234 6996   6.021   5.457   2.151 -0.0814  0.1807  0.3299
   22MOL   H235 6997   5.973   5.479   1.945  0.6705  0.2840 -0.1926
   22MOL   H236 6998   6.122   5.721   2.171 -2.5272 -0.7365 -0.3248
   22MOL   H237 6999   6.421   5.824   1.895 -0.8359  0.3220  0.7042
   22MOL   H238 7000   6.319   5.650   1.718 -0.3337  0.1251 -0.7416
   22MOL   H239 7001   6.124   5.526   1.791 -0.0659 -0.9651  0.4702
   22MOL   H240 7002   6.116   5.411   2.123 -0.2099 -2.1509  3.4329
   22MOL   H241 7003   6.031   5.519   2.240  2.7455 -1.7459  1.4167
   22MOL   C242 7004   5.915   5.344   2.175 -0.5779  0.9376 -0.2787
   22MOL   C243 7005   5.910   5.240   2.062  0.1882 -0.1778 -0.1654
   22MOL   C244 7006   6.021   5.167   2.020  0.3419 -0.6100 -0.5862
   22MOL   C245 7007   6.010   5.068   1.921  0.3879 -0.5006  0.4658
   22MOL  Cl246 7008   6.143   4.985   1.862  0.0115  0.2948  0.1426
   22MOL   C247 7009   5.879   5.038   1.870  0.0090 -0.0890 -0.3283
   22MOL   C248 7010   5.769   5.103   1.921 -0.0887  0.2122 -0.3671
   22MOL   C249 7011   5.782   5.204   2.016  0.7883  0.4103  0.8781
   22MOL   C250 7012   5.947   5.280   2.315  0.9441  0.1488  0.5174
   22MOL   H251 7013   5.816   5.388   2.168  0.5332  3.8647  1.6440
   22MOL   H252 7014   6.120   5.190   2.057 -0.5510  0.4050  1.2665
   22MOL   H253 7015   5.877   4.964   1.791 -1.6002  2.3410 -2.6582
   22MOL   H254 7016   5.672   5.080   1.881  0.5785  1.5924 -2.8610
   22MOL   H255 7017   5.691   5.251   2.052 -0.6516 -2.6252  1.4302
   22MOL   H256 7018   6.050   5.245   2.309  0.4836 -1.1315 -0.0208
   22MOL   H257 7019   5.937   5.363   2.385  2.2881 -0.1999  1.1335
   22MOL   C258 7020   5.868   5.159   2.354  0.1138  0.1777 -0.1207
   22MOL   C259 7021   5.935   5.080   2.475  0.5887  0.5116  0.5454
   22MOL   C260 7022   5.981   5.150   2.586  0.5553  0.2644 -0.3902
   22MOL   C261 7023   6.025   5.083   2.699  0.1840  0.9816  0.4450
   22MOL  Cl262 7024   6.093   5.171   2.831 -0.0298 -0.2429  0.0662
   22MOL   C263 7025   6.023   4.943   2.695 -0.0579  0.4556 -0.0962
   22MOL   C264 7026   5.977   4.870   2.586  0.8681  0.0859 -0.4444
   22MOL   C265 7027   5.929   4.938   2.479  0.2296 -0.0498 -0.4196
   22MOL   C266 7028   5.715   5.173   2.376 -0.1259  0.4153 -0.4287
   22MOL   H267 7029   5.875   5.087   2.272  0.3036  0.6361 -0.5088
   22MOL   H268 7030   5.989   5.258   2.593 -0.2958  0.3856 -1.2100
   22MOL   H269 7031   6.072   4.897   2.779  2.0312  3.3797  0.3582
   22MOL   H270 7032   5.994   4.764   2.572 -1.6992 -0.3940 -0.0365
   22MOL   H271 7033   5.898   4.888   2.388  2.0068  0.2383 -1.1955
   22MOL   H272 7034   5.701   5.230   2.468  1.0243  0.8474 -0.5132
   22MOL   H273 7035   5.672   5.239   2.302  0.4325 -0.7638 -1.8257
   22MOL   C274 7036   5.624   5.048   2.381 -0.4467  0.0906 -0.7177
   22MOL   C275 7037   5.494   5.075   2.460  0.4889 -0.4673 -0.5010
   22MOL   C276 7038   5.394   5.163   2.404 -0.2125  0.5765  0.5125
   22MOL   C277 7039   5.269   5.186   2.469 -0.2732  0.5590 -0.6798
   22MOL  Cl278 7040   5.144   5.269   2.393  0.5409 -0.2592 -0.0596
   22MOL   C279 7041   5.243   5.129   2.596 -0.8200  0.2872 -0.7486
   22MOL   C280 7042   5.347   5.057   2.658 -0.8617 -0.4298 -0.4999
   22MOL   C281 7043   5.467   5.029   2.587  0.5697 -0.1655  0.5732
   22MOL   C282 7044   5.605   4.984   2.242  0.0575  0.5607  0.1670
   22MOL   H283 7045   5.674   4.982   2.452 -1.9205  1.4038  1.6094
   22MOL   H284 7046   5.426   5.210   2.312  0.6931  0.0072  0.5287
   22MOL   H285 7047   5.150   5.125   2.650  0.2427  0.4925  1.1394
   22MOL   H286 7048   5.332   5.017   2.757 -2.3161 -1.1332 -0.9934
   22MOL   H287 7049   5.546   4.974   2.637  0.7060  0.8535  1.5108
   22MOL   H288 7050   5.542   5.046   2.179 -1.3985 -1.9394 -0.8820
   22MOL   H289 7051   5.705   4.980   2.199 -1.0236 -0.8197 -2.3059
   22MOL   C290 7052   5.549   4.835   2.239  0.0479  0.3269  0.1540
   22MOL   C291 7053   5.395   4.832   2.281  0.3248 -0.3542 -0.6204
   22MOL   C292 7054   5.359   4.769   2.400 -0.5488  0.1150  0.1527
   22MOL   C293 7055   5.224   4.753   2.438  0.0404  0.8074  0.0728
   22MOL  Cl294 7056   5.178   4.661   2.575 -0.0651 -0.3840  0.0827
   22MOL   C295 7057   5.122   4.801   2.357  0.4407 -0.5619 -0.2633
   22MOL   C296 7058   5.159   4.867   2.236  0.3033  0.5816 -0.0177
   22MOL   C297 7059   5.296   4.877   2.194 -0.3415  0.6369 -0.6816
   22MOL   C298 7060   5.570   4.762   2.100  0.1595 -0.8437 -0.2329
   22MOL   H299 7061   5.601   4.767   2.306  0.1544  1.2430  1.0167
   22MOL   H300 7062   5.438   4.737   2.467 -0.5120 -1.3211 -0.5694
   22MOL   H301 7063   5.017   4.789   2.377  0.3536  0.8211  0.1552
   22MOL   H302 7064   5.088   4.903   2.163 -0.8339 -1.1045  0.2355
   22MOL   H303 7065   5.329   4.911   2.096  0.4311 -2.0988 -1.4022
   22MOL   H304 7066   5.530   4.661   2.106  1.0280 -1.2724 -1.3622
   22MOL   H305 7067   5.514   4.808   2.018  3.0401  1.0936 -1.2103
   22MOL   C306 7068   5.719   4.733   2.054  0.0861  1.0342 -0.2409
   22MOL   C307 7069   5.831   4.696   2.147 -0.3070 -0.1502 -0.1938
   22MOL   C308 7070   5.956   4.763   2.140  0.5601 -0.7122 -0.1081
   22MOL   C309 7071   6.059   4.740   2.231  0.2420 -0.5799  0.2491
   22MOL  Cl310 7072   6.223   4.800   2.219 -0.7718  0.0970 -0.3007
   22MOL   C311 7073   6.031   4.648   2.333  0.2676  0.0984 -0.9510
   22MOL   C312 7074   5.908   4.577   2.341 -0.9333  0.2553  0.3682
   22MOL   C313 7075   5.811   4.602   2.248  0.7841  0.0958 -0.6274
   22MOL   C314 7076   5.727   4.645   1.925 -0.1490 -0.0018  0.4721
   22MOL   H315 7077   5.744   4.831   2.014 -0.0013  1.2870  0.3274
   22MOL   H316 7078   5.965   4.827   2.053  1.7498 -1.8907 -0.8723
   22MOL   H317 7079   6.111   4.624   2.402 -0.6486 -0.1235  0.0516
   22MOL   H318 7080   5.892   4.504   2.420  1.6955  0.2811  0.9855
   22MOL   H319 7081   5.719   4.545   2.258 -0.2487  1.9005  0.3327
   22MOL   H320 7082   5.826   4.668   1.886  0.2423 -0.6760  1.0621
   22MOL   H321 7083   5.726   4.536   1.936 -0.2548 -0.0123  0.3465
   22MOL   H322 7084   5.647   4.673   1.857  2.0907  0.7783 -1.9102
   23MOL     C1 7085   5.334   6.811   5.501  1.0688  0.3377 -0.0489
   23MOL     C2 7086   5.395   6.932   5.423 -0.2841  0.2810 -1.0585
   23MOL     C3 7087   5.480   6.911   5.317 -0.4489  0.3631  0.3595
   23MOL     C4 7088   5.546   7.017   5.252  0.3743  0.4710 -0.6248
   23MOL    Cl5 7089   5.655   6.976   5.119 -0.2188 -0.1918 -0.4623
   23MOL     C6 7090   5.519   7.147   5.299  0.1891  0.0381  0.0785
   23MOL     C7 7091   5.426   7.170   5.404  0.5078  0.4097  0.1282
   23MOL     C8 7092   5.357   7.061   5.465 -0.1051 -0.2403 -1.0772
   23MOL     C9 7093   5.187   6.803   5.464  0.1289  0.2729 -0.8019
   23MOL    H10 7094   5.332   6.817   5.609  0.5074 -1.5676  0.0647
   23MOL    H11 7095   5.498   6.811   5.280  2.1355  0.8865  0.0691
   23MOL    H12 7096   5.566   7.226   5.241 -4.8371  2.7013 -0.6170
   23MOL    H13 7097   5.397   7.271   5.430  0.9738  0.2746  1.1720
   23MOL    H14 7098   5.292   7.090   5.546  1.0436  0.3868 -0.3537
   23MOL    H15 7099   5.138   6.891   5.506  0.2230 -0.1983  0.3324
   23MOL    H16 7100   5.179   6.805   5.356 -1.2737  2.3640 -0.6903
   23MOL    H17 7101   5.396   6.723   5.481  2.0286  0.9560  0.1837
   23MOL    C18 7102   5.124   6.665   5.517  0.5939  0.3248  0.4520
   23MOL    C19 7103   5.116   6.658   5.665 -0.2347 -0.4930 -0.4550
   23MOL    C20 7104   5.036   6.756   5.730 -0.3294  0.1041 -0.0045
   23MOL    C21 7105   5.016   6.752   5.868 -0.2694  0.2266 -0.1360
   23MOL   Cl22 7106   4.934   6.881   5.937 -0.2246 -0.3630  0.3166
   23MOL    C23 7107   5.076   6.654   5.948  0.0571  0.4825  0.3332
   23MOL    C24 7108   5.149   6.549   5.887 -0.3978  0.6080 -0.1086
   23MOL    C25 7109   5.169   6.555   5.744  0.3577  0.4890 -0.0862
   23MOL    C26 7110   4.990   6.631   5.440 -0.3519  0.3892 -0.0010
   23MOL    H27 7111   5.198   6.587   5.497  0.2862  1.0338 -3.9547
   23MOL    H28 7112   4.997   6.835   5.667  2.0439  0.0417 -1.6108
   23MOL    H29 7113   5.068   6.663   6.055  1.5082  0.7465  0.4179
   23MOL    H30 7114   5.196   6.470   5.943  2.0317  1.5513 -0.7479
   23MOL    H31 7115   5.219   6.479   5.685 -0.3368  1.2478 -1.6596
   23MOL    H32 7116   4.958   6.536   5.483  1.5154  1.0319  2.9818
   23MOL    H33 7117   4.927   6.716   5.465  1.0238  0.9059  1.7613
   23MOL    C34 7118   5.000   6.611   5.294  0.5849  0.3849  0.1061
   23MOL    C35 7119   5.105   6.510   5.261  0.8301  1.0688  0.7075
   23MOL    C36 7120   5.238   6.552   5.246 -0.0321  0.1600 -0.0689
   23MOL    C37 7121   5.340   6.461   5.216 -0.2954  0.3319 -0.2961
   23MOL   Cl38 7122   5.492   6.532   5.186 -0.1081  0.1842  0.1453
   23MOL    C39 7123   5.320   6.323   5.226  0.2117  0.2887 -0.2466
   23MOL    C40 7124   5.185   6.281   5.247  0.1143  0.2902 -0.2435
   23MOL    C41 7125   5.081   6.377   5.261 -0.2015 -0.1503 -0.5157
   23MOL    C42 7126   4.855   6.588   5.242 -0.0171 -0.5808  0.1078
   23MOL    H43 7127   5.040   6.701   5.246 -0.2423  1.4998  1.4823
   23MOL    H44 7128   5.261   6.657   5.256 -0.6583  0.4528 -1.5886
   23MOL    H45 7129   5.399   6.249   5.225  0.7676  0.8821 -0.1198
   23MOL    H46 7130   5.173   6.174   5.256 -0.1784  0.0452 -3.0613
   23MOL    H47 7131   4.979   6.351   5.286 -0.3195  1.5918  0.9290
   23MOL    H48 7132   4.800   6.519   5.307 -0.3644  2.4345  3.1814
   23MOL    H49 7133   4.804   6.684   5.252  1.4943  0.3480 -1.0041
   23MOL    C50 7134   4.841   6.526   5.095 -0.3388  0.0537  0.1375
   23MOL    C51 7135   4.693   6.495   5.052  0.0639 -1.0175 -0.4230
   23MOL    C52 7136   4.658   6.366   5.018  0.2433  0.5146  0.4743
   23MOL    C53 7137   4.523   6.335   4.976 -0.1002 -1.0202 -0.4075
   23MOL   Cl54 7138   4.490   6.173   4.935 -0.0441  0.1833  0.2060
   23MOL    C55 7139   4.423   6.431   4.991  0.5449 -0.0982 -0.2348
   23MOL    C56 7140   4.458   6.567   5.028 -0.2021 -0.0902 -0.5111
   23MOL    C57 7141   4.598   6.594   5.049 -0.5765  0.4423  0.0539
   23MOL    C58 7142   4.919   6.610   4.987  0.2691 -0.3522 -0.8396
   23MOL    H59 7143   4.878   6.424   5.100 -0.0321  0.0824 -1.3249
   23MOL    H60 7144   4.731   6.287   5.029  0.5654  0.7972  0.3940
   23MOL    H61 7145   4.317   6.416   4.975 -0.2277  2.0697  2.4257
   23MOL    H62 7146   4.377   6.637   5.040 -0.4775 -0.7654  1.8750
   23MOL    H63 7147   4.632   6.693   5.076 -0.5082  0.2097  0.8496
   23MOL    H64 7148   4.894   6.716   4.993  0.4123 -0.2401 -2.1488
   23MOL    H65 7149   5.025   6.629   5.003  0.2098  0.6190 -1.5645
   23MOL    C66 7150   4.913   6.572   4.834  0.4201  0.2761  0.3312
   23MOL    C67 7151   4.848   6.690   4.758 -0.5461  0.1874 -0.4425
   23MOL    C68 7152   4.904   6.821   4.742  0.1291  0.9565 -0.7285
   23MOL    C69 7153   4.833   6.917   4.668  0.1094  0.1961  0.1592
   23MOL   Cl70 7154   4.898   7.078   4.646  0.4642  0.3771  0.0882
   23MOL    C71 7155   4.717   6.879   4.601  0.1766 -0.2942  0.4457
   23MOL    C72 7156   4.651   6.763   4.631  0.5165  0.2305  0.7798
   23MOL    C73 7157   4.718   6.666   4.709 -0.4830 -0.2493 -0.0844
   23MOL    C74 7158   5.054   6.547   4.776  0.2085  0.2328 -0.0591
   23MOL    H75 7159   4.852   6.482   4.821 -0.7906  1.3115 -1.2761
   23MOL    H76 7160   4.996   6.855   4.787 -2.0215  3.9352  1.6980
   23MOL    H77 7161   4.683   6.953   4.530 -1.8964 -0.6412  1.0498
   23MOL    H78 7162   4.551   6.746   4.595  1.0840 -0.4487 -0.5274
   23MOL    H79 7163   4.670   6.572   4.732  0.1585 -0.5728 -0.0664
   23MOL    H80 7164   5.062   6.546   4.667  2.6452 -0.1037  0.0911
   23MOL    H81 7165   5.113   6.629   4.817 -1.4095  1.5432 -0.2830
   23MOL    C82 7166   5.115   6.412   4.825  0.3557 -0.4580  0.9784
   23MOL    C83 7167   5.085   6.289   4.735  0.1900  0.5947  0.2024
   23MOL    C84 7168   5.139   6.276   4.607 -0.8689 -0.1797  0.0816
   23MOL    C85 7169   5.128   6.161   4.529  0.0544  0.4289  0.0165
   23MOL   Cl86 7170   5.214   6.145   4.382  0.3543  0.0993 -0.0682
   23MOL    C87 7171   5.063   6.046   4.583 -0.3436 -0.0765 -0.5098
   23MOL    C88 7172   5.014   6.054   4.716 -0.1485  0.5170 -0.1187
   23MOL    C89 7173   5.018   6.176   4.791  0.6555  0.1958 -0.8661
   23MOL    C90 7174   5.263   6.415   4.878  0.1922  0.3615  0.0041
   23MOL    H91 7175   5.059   6.390   4.915 -1.9348 -0.1719 -0.3502
   23MOL    H92 7176   5.186   6.363   4.563  0.6823 -0.9248  0.2497
   23MOL    H93 7177   5.069   5.952   4.530  1.7223 -0.0658 -0.3250
   23MOL    H94 7178   4.966   5.970   4.763  0.7260  0.8901  1.4574
   23MOL    H95 7179   4.969   6.173   4.887  1.3293 -0.7613 -0.5431
   23MOL    H96 7180   5.264   6.474   4.970 -0.3763  1.6899 -0.8320
   23MOL    H97 7181   5.290   6.312   4.902  0.2286  1.0569  3.1632
   23MOL    C98 7182   5.369   6.484   4.786 -0.8852  0.0516  0.3241
   23MOL    C99 7183   5.346   6.636   4.762 -0.3865  0.6762  0.3069
   23MOL   C100 7184   5.331   6.716   4.885  0.3348  0.4411  0.4664
   23MOL   C101 7185   5.314   6.856   4.879  0.6133  0.9568  0.0932
   23MOL  Cl102 7186   5.312   6.958   5.019  0.3091  0.3997  0.4221
   23MOL   C103 7187   5.299   6.913   4.749 -0.2682  0.3009  0.0458
   23MOL   C104 7188   5.302   6.839   4.631 -0.0941 -0.2192  0.6399
   23MOL   C105 7189   5.327   6.697   4.636  0.3795  0.0248 -0.3348
   23MOL   C106 7190   5.508   6.451   4.853  0.5434 -0.2025 -0.7180
   23MOL   H107 7191   5.363   6.431   4.691  1.3413 -0.9838  0.7222
   23MOL   H108 7192   5.350   6.661   4.976  2.8030 -0.4880 -0.5711
   23MOL   H109 7193   5.295   7.020   4.735 -2.7091 -0.0280 -2.0352
   23MOL   H110 7194   5.306   6.893   4.538 -3.7784  1.9805  1.6851
   23MOL   H111 7195   5.343   6.644   4.544 -0.0770  0.8687 -0.9049
   23MOL   H112 7196   5.534   6.530   4.923  1.4978 -1.1618  0.0278
   23MOL   H113 7197   5.500   6.354   4.902  2.5245  0.5337  1.1487
   23MOL   C114 7198   5.620   6.428   4.746 -0.2046 -0.8766 -0.3877
   23MOL   C115 7199   5.622   6.542   4.639 -0.4771  0.3336 -0.1756
   23MOL   C116 7200   5.658   6.673   4.681  0.4207  0.1441  0.6663
   23MOL   C117 7201   5.661   6.770   4.578  0.7752 -1.0074  0.4117
   23MOL  Cl118 7202   5.699   6.933   4.616 -0.0383  0.4951 -0.2487
   23MOL   C119 7203   5.628   6.739   4.443 -0.1856  0.4587 -0.4389
   23MOL   C120 7204   5.578   6.613   4.413 -0.5812 -0.1585  0.1301
   23MOL   C121 7205   5.581   6.512   4.509  0.1813 -0.2934 -0.0754
   23MOL   C122 7206   5.761   6.423   4.808  0.5352 -0.6261 -0.3776
   23MOL   H123 7207   5.599   6.338   4.689  0.6527 -1.4295  0.1735
   23MOL   H124 7208   5.679   6.697   4.784  0.7280 -0.8910  0.8432
   23MOL   H125 7209   5.627   6.815   4.367 -2.3409 -0.8261 -1.7394
   23MOL   H126 7210   5.548   6.596   4.310  1.5119 -0.7945 -0.3905
   23MOL   H127 7211   5.557   6.411   4.479 -0.2374 -0.0080 -0.7102
   23MOL   H128 7212   5.839   6.431   4.732 -0.6551 -1.0986 -1.6837
   23MOL   H129 7213   5.774   6.511   4.870 -0.3196  1.0246 -2.4588
   23MOL   C130 7214   5.785   6.291   4.889  0.3083 -0.0714  0.4834
   23MOL   C131 7215   5.880   6.191   4.817 -0.3076 -0.6975 -0.0684
   23MOL   C132 7216   5.837   6.075   4.747  0.5678 -0.3696  0.4891
   23MOL   C133 7217   5.935   6.006   4.675  0.5041 -0.1725  0.2016
   23MOL  Cl134 7218   5.866   5.874   4.588 -0.2449 -0.3020  0.0448
   23MOL   C135 7219   6.073   6.042   4.675  0.5166 -0.5185 -0.2009
   23MOL   C136 7220   6.112   6.151   4.751 -0.0108 -0.7175  0.4018
   23MOL   C137 7221   6.016   6.222   4.823 -0.1621 -0.2447  0.0454
   23MOL   C138 7222   5.817   6.338   5.040 -0.6696  0.5064 -0.4297
   23MOL   H139 7223   5.693   6.233   4.886  1.0609 -1.1944 -1.7550
   23MOL   H140 7224   5.731   6.059   4.733  0.7327  0.3852 -1.9577
   23MOL   H141 7225   6.149   5.998   4.611  1.4200 -0.3380  0.7287
   23MOL   H142 7226   6.214   6.188   4.758 -0.6274  0.8871  1.1348
   23MOL   H143 7227   6.052   6.309   4.876 -1.1722  0.8621 -1.0271
   23MOL   H144 7228   5.893   6.416   5.041  0.3892 -0.4616  2.1662
   23MOL   H145 7229   5.728   6.387   5.081  0.9900  0.0935  4.0099
   23MOL   C146 7230   5.859   6.225   5.141  0.9561 -0.2400 -0.4359
   23MOL   C147 7231   6.005   6.191   5.134  0.8340 -0.2549  0.2249
   23MOL   C148 7232   6.105   6.289   5.156  0.4742  0.4295 -0.3525
   23MOL   C149 7233   6.242   6.268   5.138 -0.2419  0.2696 -1.1490
   23MOL  Cl150 7234   6.359   6.392   5.182  0.1189  0.0019  0.0663
   23MOL   C151 7235   6.285   6.143   5.084  0.1430  0.6246 -0.0867
   23MOL   C152 7236   6.187   6.046   5.054 -0.2559  0.3596  0.4395
   23MOL   C153 7237   6.053   6.066   5.083  0.6445 -0.2516 -0.6510
   23MOL   C154 7238   5.815   6.260   5.287 -0.8042  0.2073 -0.3126
   23MOL   H155 7239   5.806   6.135   5.110  1.4559 -1.8345  3.1088
   23MOL   H156 7240   6.082   6.389   5.189 -1.1724  0.8758 -2.7336
   23MOL   H157 7241   6.391   6.135   5.065  0.5465 -0.2348  2.3723
   23MOL   H158 7242   6.208   5.947   5.018 -3.8564 -1.2590  2.5747
   23MOL   H159 7243   5.987   5.992   5.041 -0.2531  0.5176 -0.6227
   23MOL   H160 7244   5.820   6.366   5.310 -1.9063 -0.1222  1.6184
   23MOL   H161 7245   5.706   6.247   5.293 -0.6317 -1.3198 -0.2199
   23MOL   C162 7246   5.887   6.178   5.397  0.8701  0.1980 -0.4510
   23MOL   C163 7247   5.963   6.269   5.489  0.2651  0.1387  0.2525
   23MOL   C164 7248   6.101   6.263   5.501  0.5145 -0.7164 -0.2217
   23MOL   C165 7249   6.169   6.352   5.581 -0.0900 -0.3942  0.3086
   23MOL  Cl166 7250   6.340   6.349   5.586 -0.2846 -0.1028  0.4364
   23MOL   C167 7251   6.093   6.445   5.659  0.8584 -0.2784  0.1532
   23MOL   C168 7252   5.954   6.444   5.659 -0.3327  0.8409  0.1836
   23MOL   C169 7253   5.887   6.356   5.574 -0.7716  0.5913 -0.8007
   23MOL   C170 7254   5.786   6.082   5.473 -0.1192 -0.1011 -0.3120
   23MOL   H171 7255   5.962   6.105   5.364 -0.7523 -1.0548 -1.4603
   23MOL   H172 7256   6.156   6.184   5.451  1.5671 -0.4552  0.4940
   23MOL   H173 7257   6.143   6.524   5.712 -0.5757  0.3012  0.6781
   23MOL   H174 7258   5.883   6.502   5.717 -1.4752 -2.1844  1.9216
   23MOL   H175 7259   5.780   6.367   5.562 -1.0531 -0.7265  0.3517
   23MOL   H176 7260   5.811   6.094   5.579  1.2474  0.8624 -0.7423
   23MOL   H177 7261   5.685   6.122   5.476  0.2794  0.8554  0.7450
   23MOL   C178 7262   5.774   5.936   5.428  0.4907  0.1109  0.0460
   23MOL   C179 7263   5.903   5.863   5.406 -0.2846  0.2392 -0.4462
   23MOL   C180 7264   5.986   5.832   5.519 -0.3759 -0.0384  0.1008
   23MOL   C181 7265   6.098   5.746   5.505 -0.1029 -0.1192  0.7850
   23MOL  Cl182 7266   6.173   5.685   5.641  0.2060  0.3149  0.3229
   23MOL   C183 7267   6.136   5.703   5.377 -0.4825 -0.2288  0.0905
   23MOL   C184 7268   6.067   5.750   5.261  0.7252 -0.4433 -0.3038
   23MOL   C185 7269   5.947   5.817   5.273 -0.0203 -0.0012 -0.1632
   23MOL   C186 7270   5.665   5.859   5.514 -0.5660 -0.2021  0.0840
   23MOL   H187 7271   5.721   5.948   5.333  2.1194  0.1621 -0.8729
   23MOL   H188 7272   5.953   5.858   5.619 -0.3286 -0.4684  0.2304
   23MOL   H189 7273   6.213   5.628   5.363  0.0245  0.4775 -0.9609
   23MOL   H190 7274   6.110   5.730   5.163 -1.2119  0.5340 -1.3797
   23MOL   H191 7275   5.886   5.842   5.187  1.5217 -3.0734 -2.2406
   23MOL   H192 7276   5.705   5.849   5.615  1.0051  0.8243 -0.4043
   23MOL   H193 7277   5.583   5.930   5.529  0.4698  0.9864  0.2493
   23MOL   C194 7278   5.617   5.719   5.462  0.5213 -0.0187  0.4085
   23MOL   C195 7279   5.699   5.602   5.512 -0.0789 -0.6572  0.4886
   23MOL   C196 7280   5.701   5.581   5.652 -0.1609 -0.1544  0.2631
   23MOL   C197 7281   5.751   5.459   5.707  0.6192  0.2343 -0.2113
   23MOL  Cl198 7282   5.722   5.433   5.879 -0.1068 -0.1459  0.2513
   23MOL   C199 7283   5.828   5.367   5.625 -0.1243 -0.6087 -0.9392
   23MOL   C200 7284   5.833   5.397   5.490 -0.0329  0.0603  0.1732
   23MOL   C201 7285   5.776   5.515   5.434  0.2640  0.5289  0.6381
   23MOL   C202 7286   5.467   5.689   5.473  0.0930 -0.3997  0.0378
   23MOL   H203 7287   5.638   5.735   5.356 -2.6383 -1.2548 -0.4388
   23MOL   H204 7288   5.653   5.649   5.719  3.3105  2.1208  0.5868
   23MOL   H205 7289   5.883   5.280   5.658  2.2970  1.6010  1.0387
   23MOL   H206 7290   5.886   5.327   5.427  1.7235 -0.6418  2.3729
   23MOL   H207 7291   5.778   5.532   5.328 -4.1750 -0.5998  0.2844
   23MOL   H208 7292   5.451   5.585   5.443  2.7009 -0.5927 -0.8169
   23MOL   H209 7293   5.434   5.691   5.577 -1.3566 -0.9846 -0.3961
   23MOL   C210 7294   5.371   5.775   5.388  0.5441 -0.7560  0.6328
   23MOL   C211 7295   5.423   5.789   5.243  0.4534  0.0246  0.1937
   23MOL   C212 7296   5.409   5.907   5.167 -0.3006  0.4204  0.5567
   23MOL   C213 7297   5.464   5.917   5.038  1.0742 -0.3680  0.4970
   23MOL  Cl214 7298   5.441   6.057   4.945 -0.3218  0.1036 -0.3422
   23MOL   C215 7299   5.530   5.806   4.975 -0.2450  0.3446  0.4097
   23MOL   C216 7300   5.525   5.682   5.044 -0.8883  0.3930 -0.1807
   23MOL   C217 7301   5.480   5.676   5.181 -0.0110 -0.3396  0.5395
   23MOL   C218 7302   5.226   5.735   5.393 -0.7802 -0.0163  0.0879
   23MOL   H219 7303   5.382   5.880   5.414 -0.3137 -0.4683 -0.1398
   23MOL   H220 7304   5.373   5.998   5.212 -1.5022  1.9819 -3.2913
   23MOL   H221 7305   5.583   5.805   4.880  2.8378  1.8030  2.0240
   23MOL   H222 7306   5.572   5.592   5.008 -1.0678 -0.4520  1.6388
   23MOL   H223 7307   5.488   5.584   5.237 -1.4256 -0.3043  0.8196
   23MOL   H224 7308   5.168   5.796   5.324 -0.4820 -0.5417 -0.6399
   23MOL   H225 7309   5.222   5.633   5.356 -0.5578 -0.4572  1.2707
   23MOL   C226 7310   5.154   5.750   5.532 -0.9275  0.6546 -0.2669
   23MOL   C227 7311   5.136   5.893   5.564  0.5064 -0.1749 -0.5476
   23MOL   C228 7312   5.025   5.973   5.521  0.6865  0.5623  0.4096
   23MOL   C229 7313   5.015   6.106   5.560 -0.9631 -0.8691 -0.5109
   23MOL  Cl230 7314   4.889   6.205   5.511 -0.4263 -0.2096  0.4048
   23MOL   C231 7315   5.114   6.168   5.642  0.3007  0.3204 -0.1962
   23MOL   C232 7316   5.222   6.084   5.693  0.4121 -0.4052 -0.7552
   23MOL   C233 7317   5.229   5.951   5.652  0.4628  0.4563 -0.5858
   23MOL   C234 7318   5.021   5.670   5.541  0.2210  0.3965 -0.2599
   23MOL   H235 7319   5.220   5.706   5.606 -0.3681  4.1422  1.4100
   23MOL   H236 7320   4.950   5.944   5.449 -0.0861  0.7367  1.1290
   23MOL   H237 7321   5.104   6.274   5.657  1.6910  0.4707 -0.2044
   23MOL   H238 7322   5.303   6.119   5.755  0.3195 -1.6071  0.0533
   23MOL   H239 7323   5.316   5.898   5.690 -0.0632 -0.7060 -0.9700
   23MOL   H240 7324   4.956   5.695   5.458 -3.0128  0.3789  2.1983
   23MOL   H241 7325   5.022   5.561   5.530 -1.9500  0.1639  1.5913
   23MOL   C242 7326   4.935   5.684   5.666  0.3927 -0.5152 -0.4834
   23MOL   C243 7327   4.791   5.683   5.626  0.4950  0.1720 -0.0955
   23MOL   C244 7328   4.718   5.805   5.628  0.1430  0.5724  0.7375
   23MOL   C245 7329   4.581   5.797   5.592 -0.1961 -0.4096 -0.6245
   23MOL  Cl246 7330   4.498   5.953   5.581 -0.2156 -0.0610 -0.1047
   23MOL   C247 7331   4.514   5.672   5.562 -0.5955  0.4761  0.2336
   23MOL   C248 7332   4.586   5.549   5.573 -0.2024  0.3086 -0.2222
   23MOL   C249 7333   4.724   5.554   5.597 -0.7995  0.0724 -0.8611
   23MOL   C250 7334   4.978   5.596   5.783  0.0523 -0.8358  0.1026
   23MOL   H251 7335   4.941   5.786   5.704  0.3212 -0.7421  0.1358
   23MOL   H252 7336   4.755   5.904   5.649 -0.3809  0.6341  1.4115
   23MOL   H253 7337   4.408   5.677   5.540 -0.6746 -1.0427  0.2197
   23MOL   H254 7338   4.535   5.455   5.564  1.9576 -1.2066  2.4213
   23MOL   H255 7339   4.777   5.460   5.594  0.5923  0.6712  2.4822
   23MOL   H256 7340   5.005   5.497   5.745  0.8448 -0.5306 -0.1287
   23MOL   H257 7341   5.073   5.628   5.825 -0.7098  0.7833  0.6191
   23MOL   C258 7342   4.874   5.593   5.899  0.5876 -0.8840 -0.2193
   23MOL   C259 7343   4.809   5.460   5.917 -0.1642 -0.6871  0.0604
   23MOL   C260 7344   4.667   5.441   5.902  0.1206 -0.5314  0.0511
   23MOL   C261 7345   4.607   5.319   5.923  0.3048  0.5298  0.3727
   23MOL  Cl262 7346   4.447   5.308   5.866  0.3084 -0.1595 -0.0439
   23MOL   C263 7347   4.691   5.210   5.954 -1.4546 -0.1446 -0.3653
   23MOL   C264 7348   4.830   5.227   5.981  0.2898 -0.3466 -0.0879
   23MOL   C265 7349   4.886   5.354   5.959 -0.2453  0.4944  0.6242
   23MOL   C266 7350   4.925   5.638   6.035 -0.3693  0.6696 -0.0558
   23MOL   H267 7351   4.781   5.646   5.876 -0.9394 -3.6627 -0.6356
   23MOL   H268 7352   4.608   5.531   5.893 -0.0586 -0.6485  0.0503
   23MOL   H269 7353   4.654   5.109   5.951 -0.8867 -0.4384  1.7123
   23MOL   H270 7354   4.894   5.143   6.002 -0.7082 -1.0025  0.4037
   23MOL   H271 7355   4.993   5.368   5.965 -0.0890  0.9947 -2.4835
   23MOL   H272 7356   4.854   5.605   6.110 -0.3936 -3.5795 -1.7847
   23MOL   H273 7357   5.017   5.582   6.055  1.0124  2.5982 -0.8097
   23MOL   C274 7358   4.946   5.794   6.054  0.4322 -0.2993  0.2820
   23MOL   C275 7359   4.828   5.877   6.013  0.0022  0.1338  0.1835
   23MOL   C276 7360   4.702   5.863   6.075  0.1810  0.1223 -0.0021
   23MOL   C277 7361   4.592   5.935   6.013  0.4815 -0.2637 -0.2071
   23MOL  Cl278 7362   4.430   5.896   6.075  0.0392  0.1920  0.2392
   23MOL   C279 7363   4.618   6.039   5.924  0.4823 -0.5857 -0.5923
   23MOL   C280 7364   4.745   6.064   5.867 -0.3669 -0.6835  0.2377
   23MOL   C281 7365   4.845   5.979   5.918 -0.1526 -0.0800 -0.0942
   23MOL   C282 7366   4.983   5.826   6.200  0.4307  0.9091 -0.9942
   23MOL   H283 7367   5.028   5.837   5.996 -1.2779 -0.5516 -2.4294
   23MOL   H284 7368   4.685   5.781   6.144  0.3159 -0.5028 -0.7007
   23MOL   H285 7369   4.538   6.099   5.886  0.4897 -0.5967 -0.6270
   23MOL   H286 7370   4.772   6.137   5.792 -0.6813 -0.0552  0.7302
   23MOL   H287 7371   4.941   5.983   5.870 -0.0542  0.1472  0.1172
   23MOL   H288 7372   4.972   5.933   6.217  0.6439  1.0666 -1.8038
   23MOL   H289 7373   4.910   5.794   6.274  2.3723  0.7727  0.9309
   23MOL   C290 7374   5.133   5.791   6.243 -0.1020 -0.1985  0.2582
   23MOL   C291 7375   5.249   5.813   6.143 -0.0918  0.5959  0.2965
   23MOL   C292 7376   5.291   5.720   6.055  0.1388  0.1715 -0.6493
   23MOL   C293 7377   5.385   5.749   5.955  0.5397 -0.1224 -0.3543
   23MOL  Cl294 7378   5.414   5.636   5.835 -0.4155 -0.3746 -0.1578
   23MOL   C295 7379   5.447   5.875   5.958 -0.2188 -0.3985 -0.1074
   23MOL   C296 7380   5.407   5.971   6.052 -0.5490 -0.0763 -0.0766
   23MOL   C297 7381   5.304   5.942   6.133 -0.5523  0.0433  0.4117
   23MOL   C298 7382   5.173   5.841   6.386 -0.3972 -0.0033  0.2813
   23MOL   H299 7383   5.134   5.685   6.267  1.0448  0.1996  2.0720
   23MOL   H300 7384   5.238   5.626   6.056  0.8941 -0.2503  0.7032
   23MOL   H301 7385   5.525   5.905   5.890 -0.7379 -2.0508 -1.4682
   23MOL   H302 7386   5.457   6.067   6.054  2.2346 -1.3789 -2.5366
   23MOL   H303 7387   5.267   6.031   6.183  3.9292  2.0510  0.4252
   23MOL   H304 7388   5.279   5.847   6.410 -1.2529 -0.1706  4.3845
   23MOL   H305 7389   5.152   5.948   6.379 -2.4347 -0.3187  1.3436
   23MOL   C306 7390   5.115   5.774   6.516 -1.2454 -0.1864 -0.2742
   23MOL   C307 7391   4.966   5.771   6.528  0.3793  0.5994 -0.3999
   23MOL   C308 7392   4.904   5.897   6.534  0.4832  0.0642  0.4576
   23MOL   C309 7393   4.761   5.904   6.534  0.3477  0.5092 -0.5175
   23MOL  Cl310 7394   4.686   6.056   6.534 -0.4519 -0.1433  0.4541
   23MOL   C311 7395   4.677   5.788   6.524  0.1878  0.0166  0.1246
   23MOL   C312 7396   4.740   5.660   6.521  0.2490  1.0196 -0.3744
   23MOL   C313 7397   4.885   5.650   6.519 -0.6138  0.1014 -0.5263
   23MOL   C314 7398   5.182   5.637   6.545 -0.2824  0.2877  0.9037
   23MOL   H315 7399   5.153   5.837   6.596  1.0767 -1.0164 -0.6749
   23MOL   H316 7400   4.959   5.990   6.528  2.5964 -1.0397  1.8298
   23MOL   H317 7401   4.569   5.798   6.520  0.1750  0.0012  0.4148
   23MOL   H318 7402   4.676   5.573   6.513  0.5456  0.8179 -0.5779
   23MOL   H319 7403   4.922   5.549   6.510  1.4344  0.7768  0.0838
   23MOL   H320 7404   5.174   5.572   6.458 -0.1498 -1.2786  2.0340
   23MOL   H321 7405   5.289   5.646   6.562  0.0057 -0.3992 -0.5438
   23MOL   H322 7406   5.137   5.590   6.633 -2.6316  0.5306 -0.1389
   24MOL     C1 7407   5.924   5.481   6.651  0.6409 -0.2930  0.3348
   24MOL     C2 7408   5.949   5.525   6.795  0.4723  0.3780 -0.3609
   24MOL     C3 7409   6.063   5.476   6.860  0.3357  0.2149 -0.2857
   24MOL     C4 7410   6.090   5.539   6.985 -0.3833  0.0780  0.3867
   24MOL    Cl5 7411   6.240   5.527   7.077  0.1011  0.2018  0.0825
   24MOL     C6 7412   5.984   5.606   7.053 -0.0087  0.1396 -0.1641
   24MOL     C7 7413   5.873   5.642   6.981  0.9007 -0.0706 -0.0802
   24MOL     C8 7414   5.856   5.613   6.849  0.4233 -0.0879  0.1356
   24MOL     C9 7415   5.836   5.360   6.637 -0.6142  0.8965 -0.4172
   24MOL    H10 7416   6.021   5.476   6.603 -0.3758 -0.0167 -1.8258
   24MOL    H11 7417   6.135   5.403   6.827  1.2209  0.6873  0.5577
   24MOL    H12 7418   6.001   5.642   7.153 -2.8496  1.4361 -0.1084
   24MOL    H13 7419   5.804   5.711   7.028 -0.3731 -0.4623 -1.3139
   24MOL    H14 7420   5.779   5.659   6.788 -1.0721 -1.0886  1.2673
   24MOL    H15 7421   5.875   5.311   6.548 -2.1649  0.3524 -0.8043
   24MOL    H16 7422   5.856   5.287   6.715  0.8771 -1.3177 -2.7910
   24MOL    H17 7423   5.886   5.570   6.600  1.1884 -0.7025 -0.7995
   24MOL    C18 7424   5.686   5.400   6.635  0.3212 -0.1469  0.0120
   24MOL    C19 7425   5.662   5.457   6.493 -0.2045  1.2331 -0.4620
   24MOL    C20 7426   5.641   5.590   6.465  0.3075 -0.1005  0.0603
   24MOL    C21 7427   5.628   5.633   6.329 -0.2660  0.8791  0.2422
   24MOL   Cl22 7428   5.622   5.794   6.281 -0.0832  0.0449  0.1015
   24MOL    C23 7429   5.616   5.543   6.223 -0.9054 -0.3700 -0.9928
   24MOL    C24 7430   5.639   5.407   6.257  0.9910  0.0484  0.1200
   24MOL    C25 7431   5.661   5.367   6.390 -0.6113  0.0744 -0.1513
   24MOL    C26 7432   5.595   5.281   6.675  0.0504  0.2189  0.1570
   24MOL    H27 7433   5.673   5.488   6.698  0.5537  0.1403 -0.3391
   24MOL    H28 7434   5.639   5.670   6.538  1.3477 -0.7312  0.7866
   24MOL    H29 7435   5.604   5.567   6.118 -2.0835  0.8056 -0.6040
   24MOL    H30 7436   5.648   5.340   6.172  0.6006  0.1431  0.0061
   24MOL    H31 7437   5.682   5.265   6.418  1.0304  0.2221 -0.7610
   24MOL    H32 7438   5.618   5.190   6.619  2.0321 -0.0425  1.3442
   24MOL    H33 7439   5.611   5.269   6.782 -0.5535 -2.0081  0.0327
   24MOL    C34 7440   5.447   5.319   6.679 -0.1687  0.6242 -0.0038
   24MOL    C35 7441   5.369   5.262   6.560 -0.5342 -0.4667  0.6670
   24MOL    C36 7442   5.338   5.342   6.450 -0.2637  0.2660  0.2054
   24MOL    C37 7443   5.274   5.291   6.342 -0.1719 -0.3373  0.2178
   24MOL   Cl38 7444   5.229   5.388   6.209  0.0101 -0.5737 -0.1202
   24MOL    C39 7445   5.223   5.161   6.340  0.6375 -0.2954  0.5853
   24MOL    C40 7446   5.253   5.073   6.442  0.9965 -0.3555 -1.0430
   24MOL    C41 7447   5.325   5.125   6.550  0.3263  0.0064 -0.2011
   24MOL    C42 7448   5.371   5.277   6.809 -0.0907 -1.1796  0.4990
   24MOL    H43 7449   5.437   5.427   6.668  2.2158  0.8294 -0.3069
   24MOL    H44 7450   5.379   5.441   6.441  0.3758 -0.0349 -0.1625
   24MOL    H45 7451   5.169   5.131   6.252  1.4073 -0.1849  0.0806
   24MOL    H46 7452   5.215   4.973   6.459  1.2240 -0.1348  0.9133
   24MOL    H47 7453   5.340   5.057   6.632  0.7786 -0.1122 -0.3824
   24MOL    H48 7454   5.265   5.293   6.790 -0.0587 -0.0711  1.2590
   24MOL    H49 7455   5.375   5.170   6.831  0.8768 -1.2393  0.0543
   24MOL    C50 7456   5.403   5.346   6.941 -0.4149  0.0767  0.0281
   24MOL    C51 7457   5.339   5.485   6.927 -0.2391  0.2353  0.5273
   24MOL    C52 7458   5.198   5.505   6.937  0.2363 -0.5694 -0.1509
   24MOL    C53 7459   5.145   5.631   6.910  0.8423 -0.6185  0.5469
   24MOL   Cl54 7460   4.982   5.668   6.956  0.0000 -0.0063  0.2091
   24MOL    C55 7461   5.224   5.737   6.864  0.1985  0.1307 -0.2368
   24MOL    C56 7462   5.364   5.722   6.853 -0.0352  0.1613 -0.0677
   24MOL    C57 7463   5.424   5.596   6.896 -0.2051  0.1799 -0.3174
   24MOL    C58 7464   5.365   5.266   7.064 -0.1361  0.2884 -0.0133
   24MOL    H59 7465   5.511   5.357   6.939 -0.2980 -1.0658 -0.5534
   24MOL    H60 7466   5.130   5.427   6.966  0.4695  0.0856  2.2192
   24MOL    H61 7467   5.185   5.835   6.843 -1.7127 -0.5395  0.1054
   24MOL    H62 7468   5.427   5.800   6.812  0.9160 -0.9978 -0.8287
   24MOL    H63 7469   5.531   5.583   6.887  0.1301  1.9174  0.9790
   24MOL    H64 7470   5.366   5.341   7.144  0.0952 -1.7682  1.9666
   24MOL    H65 7471   5.259   5.244   7.051 -0.0735 -0.4575  0.6907
   24MOL    C66 7472   5.449   5.139   7.103  0.4457 -0.1508  0.4158
   24MOL    C67 7473   5.595   5.174   7.115  0.2637 -0.5201 -0.0133
   24MOL    C68 7474   5.687   5.136   7.013  0.0083  0.4865  0.2574
   24MOL    C69 7475   5.825   5.172   7.026  0.3449  0.4948 -0.0681
   24MOL   Cl70 7476   5.938   5.118   6.897  0.0036  0.3745  0.0610
   24MOL    C71 7477   5.877   5.236   7.141 -0.0597 -0.8068 -0.1439
   24MOL    C72 7478   5.787   5.263   7.245 -0.0212 -0.2622  0.1677
   24MOL    C73 7479   5.650   5.238   7.233 -0.1177  0.2155  0.4144
   24MOL    C74 7480   5.385   5.047   7.215  0.2756  0.1340  0.3271
   24MOL    H75 7481   5.433   5.081   7.012  1.9076  3.1708 -2.0934
   24MOL    H76 7482   5.661   5.077   6.927  0.6785  0.2169  0.2393
   24MOL    H77 7483   5.981   5.258   7.160 -0.2510  0.6389 -0.7193
   24MOL    H78 7484   5.830   5.308   7.333  0.7913  0.4822 -0.5964
   24MOL    H79 7485   5.591   5.267   7.319  0.2923  1.0571  0.4222
   24MOL    H80 7486   5.449   4.990   7.283  0.1202  0.4579  0.7527
   24MOL    H81 7487   5.351   5.122   7.287 -0.8008  0.5739 -0.6239
   24MOL    C82 7488   5.275   4.963   7.161 -0.0384 -0.6049  1.2183
   24MOL    C83 7489   5.314   4.876   7.040  0.1712  0.1680 -0.3315
   24MOL    C84 7490   5.239   4.884   6.916 -0.0253 -0.3072 -0.2413
   24MOL    C85 7491   5.270   4.791   6.814  0.6444 -0.7098  0.2512
   24MOL   Cl86 7492   5.175   4.793   6.672 -0.3318  0.1145 -0.2214
   24MOL    C87 7493   5.382   4.706   6.822 -0.1931  0.4796 -0.2663
   24MOL    C88 7494   5.464   4.714   6.940 -0.0968  0.5606 -0.7134
   24MOL    C89 7495   5.430   4.797   7.044  0.4786  0.1612  0.8730
   24MOL    C90 7496   5.205   4.875   7.273 -0.1531  0.5595 -0.2368
   24MOL    H91 7497   5.187   5.020   7.131  1.0307  1.3461  1.7362
   24MOL    H92 7498   5.157   4.953   6.912  0.4911  0.2714 -1.1916
   24MOL    H93 7499   5.406   4.655   6.729 -1.3884 -1.2842  0.3583
   24MOL    H94 7500   5.557   4.660   6.944  1.1962  2.6138 -1.7984
   24MOL    H95 7501   5.497   4.793   7.128  0.4518  1.5550  0.9656
   24MOL    H96 7502   5.144   4.805   7.217 -0.5847 -0.4244  1.4420
   24MOL    H97 7503   5.283   4.826   7.332 -0.6048  0.8365  0.6037
   24MOL    C98 7504   5.104   4.942   7.363 -0.0566  0.9528 -0.4803
   24MOL    C99 7505   4.980   4.984   7.291  0.7378  0.6671  0.3657
   24MOL   C100 7506   4.968   5.122   7.251  0.6043  0.5348  0.1411
   24MOL   C101 7507   4.857   5.171   7.178  0.2334 -0.6741 -0.2944
   24MOL  Cl102 7508   4.861   5.333   7.119  0.0251 -0.1487 -0.2174
   24MOL   C103 7509   4.742   5.085   7.162 -0.0204  0.7338 -0.1411
   24MOL   C104 7510   4.760   4.948   7.198  0.0315  0.1459 -0.4933
   24MOL   C105 7511   4.877   4.897   7.261 -0.0576  0.0451 -0.5171
   24MOL   C106 7512   5.087   4.872   7.499  0.5912  0.2645 -0.0634
   24MOL   H107 7513   5.161   5.031   7.386  1.6359  0.0925 -1.2619
   24MOL   H108 7514   5.052   5.187   7.275  0.7229  0.8225 -1.0430
   24MOL   H109 7515   4.650   5.119   7.117  0.0907  0.7857 -0.3312
   24MOL   H110 7516   4.679   4.879   7.179  1.4749 -1.7823  0.1727
   24MOL   H111 7517   4.893   4.790   7.268  0.5053 -0.1621 -3.9827
   24MOL   H112 7518   5.005   4.922   7.551  0.8397  0.4716  0.1284
   24MOL   H113 7519   5.048   4.774   7.470  1.8174 -0.1068 -0.4920
   24MOL   C114 7520   5.208   4.869   7.602 -0.4376  0.9906 -0.4128
   24MOL   C115 7521   5.233   5.012   7.647  0.2640  0.2309  0.0489
   24MOL   C116 7522   5.355   5.074   7.611 -0.0460 -0.1903 -0.5115
   24MOL   C117 7523   5.384   5.199   7.648  0.2688 -0.2966  0.4462
   24MOL  Cl118 7524   5.522   5.283   7.590  0.2415  0.2761  0.0872
   24MOL   C119 7525   5.294   5.276   7.722  0.2648 -0.5161 -0.2831
   24MOL   C120 7526   5.166   5.226   7.750 -0.3819  0.2356 -0.5669
   24MOL   C121 7527   5.136   5.091   7.716  0.0796  0.0733 -0.2299
   24MOL   C122 7528   5.179   4.763   7.710  0.1017  0.4184 -0.3316
   24MOL   H123 7529   5.289   4.833   7.538 -1.2443 -1.2784 -0.2090
   24MOL   H124 7530   5.433   5.019   7.561  0.0675  0.7481 -1.3643
   24MOL   H125 7531   5.328   5.376   7.748 -0.7948  0.2107 -1.6212
   24MOL   H126 7532   5.094   5.294   7.793 -1.8507 -1.0906 -0.8870
   24MOL   H127 7533   5.040   5.046   7.739 -0.2397  0.5829 -0.5514
   24MOL   H128 7534   5.248   4.769   7.794  1.1512  2.4403 -1.2910
   24MOL   H129 7535   5.085   4.792   7.757 -0.1481  0.7680 -1.0335
   24MOL   C130 7536   5.189   4.616   7.666  0.4309 -0.5631 -0.6178
   24MOL   C131 7537   5.333   4.576   7.611  0.0623  0.9775  0.4621
   24MOL   C132 7538   5.442   4.592   7.702 -0.9748  0.4234  0.2377
   24MOL   C133 7539   5.574   4.589   7.650  0.0533 -0.2748  0.2029
   24MOL  Cl134 7540   5.704   4.620   7.762  0.1432 -0.2777 -0.1691
   24MOL   C135 7541   5.593   4.557   7.514  0.3193 -0.3216 -0.1563
   24MOL   C136 7542   5.487   4.538   7.423  0.0037  0.2731 -0.0443
   24MOL   C137 7543   5.358   4.555   7.473 -0.1901  0.2028 -0.0023
   24MOL   C138 7544   5.127   4.524   7.779 -0.3513  0.4604  0.3048
   24MOL   H139 7545   5.129   4.599   7.577  1.3190  0.5939 -1.4530
   24MOL   H140 7546   5.430   4.605   7.808 -2.3564  1.1457  0.0082
   24MOL   H141 7547   5.694   4.537   7.482  0.0694 -0.7599 -0.6837
   24MOL   H142 7548   5.501   4.514   7.319  0.0102  0.6302 -0.1292
   24MOL   H143 7549   5.277   4.554   7.401  0.9787  0.4807 -1.3613
   24MOL   H144 7550   5.144   4.417   7.762 -0.1543  0.3807  0.9835
   24MOL   H145 7551   5.200   4.533   7.859 -1.2146  0.5321  1.0859
   24MOL   C146 7552   4.971   4.548   7.827 -0.0678  0.3692  0.2152
   24MOL   C147 7553   4.882   4.587   7.710 -0.2338  0.0814 -0.2654
   24MOL   C148 7554   4.809   4.707   7.713  0.2549  0.8996  0.2315
   24MOL   C149 7555   4.732   4.755   7.598  0.1609  0.4052  0.5120
   24MOL  Cl150 7556   4.650   4.908   7.601  0.0611  0.5276 -0.0468
   24MOL   C151 7557   4.725   4.671   7.486  0.1530 -0.1945  0.3358
   24MOL   C152 7558   4.802   4.556   7.475  0.2949  0.7135  0.3897
   24MOL   C153 7559   4.881   4.510   7.591  0.7197  0.4254  0.0583
   24MOL   C154 7560   4.910   4.439   7.914 -0.1186  0.6344 -0.4165
   24MOL   H155 7561   4.986   4.637   7.888  1.5747 -0.1201  0.5358
   24MOL   H156 7562   4.811   4.773   7.799  1.5903 -0.5491  1.3327
   24MOL   H157 7563   4.661   4.698   7.404  3.0529  3.6836 -0.7902
   24MOL   H158 7564   4.801   4.494   7.386 -2.6807 -0.6171  1.2922
   24MOL   H159 7565   4.942   4.421   7.592  1.0802  0.6646 -0.3757
   24MOL   H160 7566   4.804   4.450   7.936  0.0432  1.4107 -0.0295
   24MOL   H161 7567   4.894   4.348   7.854  0.1428  0.1674  0.2214
   24MOL   C162 7568   4.983   4.404   8.050  0.0144 -0.8424 -0.1667
   24MOL   C163 7569   4.995   4.527   8.144  1.2144  0.0368  0.0721
   24MOL   C164 7570   4.875   4.586   8.197  0.3888 -0.2041 -0.2925
   24MOL   C165 7571   4.897   4.692   8.281  0.2562  0.7334 -0.5616
   24MOL  Cl166 7572   4.755   4.756   8.354  0.1802  0.3949  0.0274
   24MOL   C167 7573   5.024   4.746   8.311 -0.3102 -0.6819  0.4053
   24MOL   C168 7574   5.133   4.690   8.249  0.2211 -0.5986  1.4159
   24MOL   C169 7575   5.126   4.579   8.162 -0.2455  0.5814 -0.3803
   24MOL   C170 7576   4.917   4.281   8.121 -0.0393  0.1083 -0.7648
   24MOL   H171 7577   5.085   4.375   8.023 -0.6547 -1.8972 -1.6183
   24MOL   H172 7578   4.778   4.547   8.172  0.6943 -1.6043  0.6537
   24MOL   H173 7579   5.034   4.830   8.379 -2.9361  1.3333 -1.5868
   24MOL   H174 7580   5.234   4.728   8.259 -0.0244  0.2429  0.7849
   24MOL   H175 7581   5.219   4.537   8.129 -2.3266 -3.8033 -1.0992
   24MOL   H176 7582   4.914   4.300   8.228 -0.9778  2.5839 -1.2038
   24MOL   H177 7583   4.814   4.279   8.086  0.2820  2.5556 -1.9357
   24MOL   C178 7584   4.986   4.143   8.095 -0.0564  0.5862 -0.2776
   24MOL   C179 7585   5.008   4.115   7.946  0.6897  0.4707 -0.1754
   24MOL   C180 7586   5.134   4.133   7.879 -0.2512 -0.3520 -0.1384
   24MOL   C181 7587   5.142   4.120   7.744  0.4586 -0.4020 -0.7077
   24MOL  Cl182 7588   5.292   4.136   7.660 -0.2201 -0.3129  0.2713
   24MOL   C183 7589   5.030   4.074   7.674  0.0426 -0.9219 -0.4530
   24MOL   C184 7590   4.908   4.054   7.738  0.5105  0.2164  0.5001
   24MOL   C185 7591   4.899   4.067   7.877  0.4914 -0.1027  0.3845
   24MOL   C186 7592   5.113   4.124   8.185 -0.5265 -0.0014  0.4826
   24MOL   H187 7593   4.914   4.067   8.126 -1.1901  2.0033  0.5876
   24MOL   H188 7594   5.223   4.150   7.938 -0.6240 -0.6730  0.5298
   24MOL   H189 7595   5.045   4.057   7.569 -0.9116  0.0942 -0.7648
   24MOL   H190 7596   4.821   4.019   7.685  1.5199 -0.9363 -0.4188
   24MOL   H191 7597   4.802   4.061   7.924  0.0737 -0.2323 -0.4748
   24MOL   H192 7598   5.196   4.181   8.144  0.8770 -3.0643 -1.0980
   24MOL   H193 7599   5.099   4.188   8.272  0.5155  1.6620 -0.5380
   24MOL   C194 7600   5.144   3.990   8.245 -0.6919 -0.0348 -0.0624
   24MOL   C195 7601   5.146   3.877   8.142  0.0175 -0.6072 -0.6899
   24MOL   C196 7602   5.251   3.866   8.054 -0.1280  0.5824 -0.6015
   24MOL   C197 7603   5.259   3.767   7.959  0.1938  0.0938 -0.1478
   24MOL  Cl198 7604   5.404   3.747   7.865 -0.1259 -0.2475  0.1119
   24MOL   C199 7605   5.152   3.683   7.938 -0.6103  0.1423 -0.0793
   24MOL   C200 7606   5.045   3.682   8.025  0.8455  0.0357 -0.1842
   24MOL   C201 7607   5.040   3.779   8.129  0.4029 -0.1379  0.2551
   24MOL   C202 7608   5.282   3.999   8.320 -0.2991  0.1411 -0.2075
   24MOL   H203 7609   5.072   3.975   8.325 -1.2899 -0.5916 -0.7075
   24MOL   H204 7610   5.329   3.941   8.057  0.4418  0.1067 -3.0377
   24MOL   H205 7611   5.158   3.604   7.865  0.7979  0.6510 -0.5254
   24MOL   H206 7612   4.958   3.618   8.027 -0.2821  1.5584  2.8743
   24MOL   H207 7613   4.957   3.777   8.198 -1.1518 -0.9182 -1.5927
   24MOL   H208 7614   5.360   4.041   8.257  1.2131 -0.4398  1.2428
   24MOL   H209 7615   5.282   4.089   8.382 -1.3950  0.3010 -0.4271
   24MOL   C210 7616   5.334   3.864   8.384 -0.6190 -0.0875  0.4755
   24MOL   C211 7617   5.458   3.815   8.314  0.1048 -0.3119  0.3687
   24MOL   C212 7618   5.578   3.892   8.311 -0.6391  0.0432  0.0247
   24MOL   C213 7619   5.689   3.848   8.236 -0.3860 -0.2633  0.3722
   24MOL  Cl214 7620   5.835   3.939   8.211  0.1848  0.0107  0.1915
   24MOL   C215 7621   5.681   3.726   8.163 -0.1118  0.0902 -0.0868
   24MOL   C216 7622   5.556   3.652   8.166  0.4014 -0.2946 -0.8407
   24MOL   C217 7623   5.447   3.699   8.236 -0.5065 -0.1769 -0.3115
   24MOL   C218 7624   5.363   3.894   0.097  0.5717  0.0069  0.7619
   24MOL   H219 7625   5.249   3.796   8.382  0.1471 -1.1029  1.3914
   24MOL   H220 7626   5.594   3.988   8.357  3.3610 -1.2797  1.5844
   24MOL   H221 7627   5.774   3.698   8.115 -1.4080 -1.6693 -1.6279
   24MOL   H222 7628   5.557   3.562   8.107  0.4297 -0.7471 -0.1594
   24MOL   H223 7629   5.351   3.654   8.216 -0.7294  0.6329 -1.1118
   24MOL   H224 7630   5.423   3.814   0.138  2.4878  2.1381  2.2422
   24MOL   H225 7631   5.426   3.983   0.101 -1.0041  1.3219 -1.8230
   24MOL   C226 7632   5.239   3.912   0.186  0.5642  0.3911 -0.4766
   24MOL   C227 7633   5.163   3.776   0.198  0.0236 -0.5121  0.1395
   24MOL   C228 7634   5.222   3.662   0.247 -0.3292 -0.8278  0.1297
   24MOL   C229 7635   5.150   3.542   0.265  0.8771  0.1601  0.7880
   24MOL  Cl230 7636   5.229   3.399   0.317  0.3189  0.0352  0.1137
   24MOL   C231 7637   5.009   3.539   0.251  0.4933 -0.1469  0.0035
   24MOL   C232 7638   4.945   3.661   0.213  0.2224 -0.5793 -0.3180
   24MOL   C233 7639   5.018   3.778   0.177 -1.0429  0.8483  0.1437
   24MOL   C234 7640   5.268   3.971   0.326  0.1260 -0.2337  0.4661
   24MOL   H235 7641   5.165   3.976   0.138 -2.9770 -2.8133  0.4967
   24MOL   H236 7642   5.325   3.651   0.277 -0.6982 -1.5307  1.1776
   24MOL   H237 7643   4.948   3.451   0.267 -0.3314  0.0923 -1.7836
   24MOL   H238 7644   4.837   3.657   0.209  0.1127  1.6950 -0.5338
   24MOL   H239 7645   4.965   3.871   0.160 -0.6701  0.6393 -2.4769
   24MOL   H240 7646   5.178   3.970   0.387 -1.3977 -0.5065 -1.7482
   24MOL   H241 7647   5.337   3.895   0.364  2.2703  1.5109  0.1823
   24MOL   C242 7648   5.336   4.107   0.330 -0.5948 -0.2051 -0.1096
   24MOL   C243 7649   5.271   4.208   0.235  0.1864 -0.6323 -0.2010
   24MOL   C244 7650   5.340   4.252   0.121  0.2189 -0.1653 -0.4330
   24MOL   C245 7651   5.285   4.354   0.044  0.3551 -0.3478  0.3896
   24MOL  Cl246 7652   5.355   4.413   8.332 -0.2212 -0.3341  0.4672
   24MOL   C247 7653   5.158   4.409   0.077  0.2027  0.4357 -0.3045
   24MOL   C248 7654   5.086   4.363   0.188 -0.2792 -0.0547 -0.1150
   24MOL   C249 7655   5.148   4.269   0.267 -0.1914  0.0298  0.8565
   24MOL   C250 7656   5.352   4.174   0.469 -0.2625  0.3905 -0.3503
   24MOL   H251 7657   5.441   4.096   0.301 -0.0612  2.4739  0.6865
   24MOL   H252 7658   5.439   4.210   0.116  1.3878  2.0587  2.4956
   24MOL   H253 7659   5.113   4.486   0.015 -0.5840 -0.7309 -1.2018
   24MOL   H254 7660   4.993   4.411   0.214 -0.5434 -0.5168 -0.2058
   24MOL   H255 7661   5.097   4.235   0.356  1.2425  0.2550  1.7871
   24MOL   H256 7662   5.253   4.212   0.494 -1.3571 -0.9357 -2.5449
   24MOL   H257 7663   5.372   4.102   0.548 -0.3569  0.6494 -0.0904
   24MOL   C258 7664   5.447   4.295   0.478  0.8839 -0.5636  0.4412
   24MOL   C259 7665   5.398   4.407   0.575 -1.1458  0.2602 -0.3459
   24MOL   C260 7666   5.335   4.522   0.525  0.4802 -0.3621  0.5370
   24MOL   C261 7667   5.269   4.609   0.614  0.8568 -1.1545 -0.7120
   24MOL  Cl262 7668   5.146   4.724   0.568 -0.2922 -0.0115  0.0349
   24MOL   C263 7669   5.296   4.595   0.752 -0.5441 -0.4484 -0.0909
   24MOL   C264 7670   5.374   4.494   0.807  0.2202  0.0436 -0.3807
   24MOL   C265 7671   5.420   4.395   0.717 -0.5263  0.0327 -0.2985
   24MOL   C266 7672   5.594   4.241   0.517 -0.1576 -0.2534 -0.7385
   24MOL   H267 7673   5.460   4.332   0.376 -1.1766 -2.5898 -0.5710
   24MOL   H268 7674   5.307   4.518   0.421  1.7040 -1.3189  0.2324
   24MOL   H269 7675   5.248   4.663   0.821  0.1142  0.0201 -0.0936
   24MOL   H270 7676   5.393   4.489   0.913 -0.9315  1.5773 -0.0843
   24MOL   H271 7677   5.461   4.301   0.752 -1.5018 -0.9063 -1.5873
   24MOL   H272 7678   5.648   4.328   0.554 -2.9682  1.1429  0.2060
   24MOL   H273 7679   5.589   4.185   0.610  1.6878 -0.1852 -0.5781
   24MOL   C274 7680   5.687   4.176   0.406 -0.1270 -0.2083  0.0077
   24MOL   C275 7681   5.689   4.248   0.271  0.2120 -0.5994 -0.8898
   24MOL   C276 7682   5.707   4.387   0.255  0.4753 -0.0637  0.4949
   24MOL   C277 7683   5.705   4.441   0.124 -0.0410  0.1587 -0.1661
   24MOL  Cl278 7684   5.703   4.606   0.107  0.1788 -0.1872 -0.5033
   24MOL   C279 7685   5.701   4.359   0.015  0.2185  0.4721 -0.5194
   24MOL   C280 7686   5.692   4.220   0.036  0.3809 -0.8099  0.1236
   24MOL   C281 7687   5.682   4.166   0.158 -0.7288 -0.0249  0.3970
   24MOL   C282 7688   5.831   4.154   0.455 -0.4478  0.2117  0.3797
   24MOL   H283 7689   5.637   4.081   0.390 -1.1211  0.4100 -0.5821
   24MOL   H284 7690   5.702   4.458   0.337  1.4572  1.2285 -0.5534
   24MOL   H285 7691   5.708   4.399   8.350 -1.7617 -1.5298 -1.5175
   24MOL   H286 7692   5.708   4.162   8.381  0.1251 -1.3272  0.4094
   24MOL   H287 7693   5.680   4.059   0.169  2.7860 -0.3492 -1.3522
   24MOL   H288 7694   5.891   4.207   0.381 -1.1421 -0.5484 -0.7603
   24MOL   H289 7695   5.850   4.199   0.552  0.6368 -1.2071  0.8358
   24MOL   C290 7696   5.869   4.000   0.476  0.3070  0.5416  0.5737
   24MOL   C291 7697   5.878   3.927   0.337  0.7245  0.0612 -0.1862
   24MOL   C292 7698   5.784   3.827   0.300  0.4296 -0.2994  0.1487
   24MOL   C293 7699   5.790   3.754   0.181  0.8054  0.0760 -0.4059
   24MOL  Cl294 7700   5.674   3.638   0.126 -0.5351 -0.5199  0.0311
   24MOL   C295 7701   5.895   3.787   0.087 -0.2884 -0.7730 -0.5691
   24MOL   C296 7702   5.983   3.891   0.116  0.1465 -0.1318  0.1824
   24MOL   C297 7703   5.980   3.952   0.246  0.3763  0.3261 -0.1818
   24MOL   C298 7704   6.002   3.993   0.561  0.0632 -0.3567 -0.4613
   24MOL   H299 7705   5.781   3.955   0.521 -0.8406  1.8851 -0.2566
   24MOL   H300 7706   5.712   3.802   0.377 -0.5899  1.4560 -0.1768
   24MOL   H301 7707   5.899   3.738   8.426 -1.4499 -1.8664 -0.0750
   24MOL   H302 7708   6.066   3.923   0.054 -0.0832  0.8867  0.3941
   24MOL   H303 7709   6.067   4.006   0.279 -0.6575 -0.0523  3.3671
   24MOL   H304 7710   6.086   4.042   0.511  2.1977 -0.7997  2.5689
   24MOL   H305 7711   5.985   4.051   0.652  1.7068 -0.0525 -0.3381
   24MOL   C306 7712   6.041   3.859   0.611 -0.0918 -0.1238 -0.1440
   24MOL   C307 7713   5.924   3.784   0.678 -0.3440 -0.3670 -0.5531
   24MOL   C308 7714   5.902   3.826   0.807  0.3522 -0.6150 -0.9419
   24MOL   C309 7715   5.808   3.751   0.879 -0.7819 -0.1159 -0.1618
   24MOL  Cl310 7716   5.788   3.769   1.051  0.5014 -0.2927 -0.1033
   24MOL   C311 7717   5.737   3.651   0.815 -0.7027 -1.0855  0.1752
   24MOL   C312 7718   5.762   3.611   0.687  0.6990  0.0512 -0.2607
   24MOL   C313 7719   5.857   3.684   0.614  0.2893  0.5611  0.2227
   24MOL   C314 7720   6.129   3.776   0.516  0.0645 -0.0243 -0.6834
   24MOL   H315 7721   6.103   3.871   0.699  0.0575 -0.7533 -0.1633
   24MOL   H316 7722   5.972   3.893   0.856 -0.3850  0.1007 -0.8505
   24MOL   H317 7723   5.654   3.597   0.859 -1.3607 -1.2831 -1.2689
   24MOL   H318 7724   5.699   3.539   0.637  2.5798 -0.3421 -2.1356
   24MOL   H319 7725   5.860   3.654   0.510 -1.7989  0.2648  0.2355
   24MOL   H320 7726   6.155   3.680   0.561  0.1630  0.5200  0.4478
   24MOL   H321 7727   6.095   3.758   0.415  1.8800  2.9320 -1.8760
   24MOL   H322 7728   6.226   3.825   0.508  0.0781 -0.0754 -0.8223
   25MOL     C1 7729   0.255   1.603   2.436 -0.5653  0.3951 -0.0016
   25MOL     C2 7730   0.175   1.630   2.302 -0.0501  1.1001 -0.0181
   25MOL     C3 7731   0.198   1.749   2.226  0.3369 -0.4079  0.6935
   25MOL     C4 7732   0.142   1.768   2.104  0.2358 -0.5398  1.2289
   25MOL    Cl5 7733   0.186   1.917   2.024  0.0403  0.0060 -0.1811
   25MOL     C6 7734   0.056   1.670   2.046  0.1805 -0.0319 -0.1918
   25MOL     C7 7735   0.025   1.553   2.120  0.5618 -0.6359  0.0864
   25MOL     C8 7736   0.084   1.534   2.251 -1.1549  0.2681  0.3685
   25MOL     C9 7737   0.162   1.618   2.564 -0.1359  0.1091 -0.0826
   25MOL    H10 7738   0.334   1.678   2.437 -0.7284  0.5598  0.5725
   25MOL    H11 7739   0.265   1.821   2.271  0.3669 -0.6900  1.1058
   25MOL    H12 7740   0.011   1.686   1.949 -4.3512 -0.0582  1.7933
   25MOL    H13 7741   8.398   1.479   2.072 -1.9386  0.9829  0.7187
   25MOL    H14 7742   0.060   1.444   2.306  0.2155  0.1078  0.7216
   25MOL    H15 7743   0.171   1.719   2.604  2.5433 -0.0612 -0.1624
   25MOL    H16 7744   0.058   1.605   2.536 -0.1525 -3.6385  1.4030
   25MOL    H17 7745   0.304   1.508   2.417  2.5987  1.9636  0.0782
   25MOL    C18 7746   0.189   1.505   2.666 -0.1936  0.1951  0.3440
   25MOL    C19 7747   0.332   1.475   2.705 -0.4459 -0.1702  0.0761
   25MOL    C20 7748   0.388   1.349   2.674  0.6446 -0.5324  0.2350
   25MOL    C21 7749   0.509   1.308   2.734  0.1694  0.4367 -0.7084
   25MOL   Cl22 7750   0.588   1.158   2.694  0.1504  0.0312 -0.1051
   25MOL    C23 7751   0.578   1.403   2.822  0.4785  0.4021 -0.2440
   25MOL    C24 7752   0.528   1.528   2.845  0.4174  0.1940 -0.2989
   25MOL    C25 7753   0.398   1.564   2.790 -0.8138 -0.1423  0.2255
   25MOL    C26 7754   0.088   1.511   2.786 -0.1552 -0.1316  0.1121
   25MOL    H27 7755   0.154   1.419   2.609 -0.1743  0.6671 -0.3905
   25MOL    H28 7756   0.327   1.281   2.616  0.2571 -1.2386  1.4373
   25MOL    H29 7757   0.666   1.378   2.879  1.8520  0.3250 -2.3491
   25MOL    H30 7758   0.570   1.598   2.915 -2.2941  1.3630  0.2393
   25MOL    H31 7759   0.348   1.653   2.824  0.5004 -0.4542  3.1690
   25MOL    H32 7760   0.099   1.610   2.832  0.6344  0.1271 -0.6191
   25MOL    H33 7761   8.418   1.508   2.756  0.3778  0.1692 -1.8878
   25MOL    C34 7762   0.106   1.414   2.905 -0.9275  0.6681 -0.1588
   25MOL    C35 7763   0.030   1.457   3.021  0.9031  0.2739 -0.3997
   25MOL    C36 7764   8.321   1.432   3.026 -0.3718 -0.3089 -0.0215
   25MOL    C37 7765   8.243   1.467   3.139 -0.0963  0.0751 -0.4172
   25MOL   Cl38 7766   8.074   1.428   3.132  0.0190 -0.0444  0.0772
   25MOL    C39 7767   8.312   1.513   3.255  0.3906 -0.0601  0.1984
   25MOL    C40 7768   0.018   1.530   3.253 -0.4209  0.0534  0.9218
   25MOL    C41 7769   0.090   1.500   3.135 -0.6073  0.3522 -0.7346
   25MOL    C42 7770   0.072   1.281   2.861 -0.1334 -0.8513  0.5603
   25MOL    H43 7771   0.209   1.411   2.943 -0.3670  0.6977 -1.6279
   25MOL    H44 7772   8.265   1.384   2.947 -0.3983 -2.3188  1.1895
   25MOL    H45 7773   8.251   1.530   3.343 -1.8820  0.6803 -1.4527
   25MOL    H46 7774   0.066   1.579   3.337 -0.6495  3.1734 -0.7124
   25MOL    H47 7775   0.196   1.515   3.147 -0.0988 -3.3359 -0.2505
   25MOL    H48 7776   8.407   1.274   2.819  0.5677 -0.5718 -1.1746
   25MOL    H49 7777   0.126   1.260   2.769 -1.4391 -0.7576 -0.2369
   25MOL    C50 7778   0.096   1.168   2.960 -0.4004 -0.1437 -0.4921
   25MOL    C51 7779   0.025   1.045   2.926  0.2161  0.4891 -0.4042
   25MOL    C52 7780   8.344   1.007   2.998 -0.0691 -0.3134  0.3109
   25MOL    C53 7781   8.269   0.891   2.958  0.6296  0.2344 -0.4275
   25MOL   Cl54 7782   8.140   0.835   3.070  0.2692 -0.3523 -0.3546
   25MOL    C55 7783   8.310   0.806   2.856 -0.3381  0.0013  0.8749
   25MOL    C56 7784   8.422   0.849   2.776 -0.0668  0.1921 -0.7232
   25MOL    C57 7785   0.053   0.967   2.813 -0.1230 -0.7732  0.4788
   25MOL    C58 7786   0.249   1.135   2.972  0.4417 -0.0116  0.7259
   25MOL    H59 7787   0.059   1.208   3.054  0.6360 -1.5676  0.5221
   25MOL    H60 7788   8.304   1.052   3.088 -0.9137  1.4419 -0.9163
   25MOL    H61 7789   8.256   0.716   2.832 -2.0322  1.0213  0.7543
   25MOL    H62 7790   0.026   0.792   2.693  0.6137  1.0104 -0.9752
   25MOL    H63 7791   0.127   1.008   2.745  1.3844  0.3058  2.7160
   25MOL    H64 7792   0.300   1.114   2.878 -3.3457 -0.0525 -1.4415
   25MOL    H65 7793   0.296   1.226   3.010  0.6742 -0.0906  0.6277
   25MOL    C66 7794   0.287   1.019   3.065  0.3006  0.5857 -0.7727
   25MOL    C67 7795   0.440   0.993   3.056 -0.1403 -0.0347  0.6866
   25MOL    C68 7796   0.535   1.092   3.070  0.3259 -0.1198 -0.5984
   25MOL    C69 7797   0.670   1.067   3.066 -0.2282  0.2200  0.3488
   25MOL   Cl70 7798   0.782   1.194   3.096  0.1786  0.0089 -0.1579
   25MOL    C71 7799   0.719   0.938   3.037 -0.5651  0.0504  0.5637
   25MOL    C72 7800   0.621   0.836   3.026  0.0481  0.1482 -0.6815
   25MOL    C73 7801   0.486   0.862   3.027 -1.1575 -0.2427 -0.5133
   25MOL    C74 7802   0.243   1.047   3.208 -0.2391 -0.1423  0.7240
   25MOL    H75 7803   0.225   0.934   3.035  1.0021  0.3174 -1.4639
   25MOL    H76 7804   0.503   1.194   3.085  1.9481 -0.1907  3.9903
   25MOL    H77 7805   0.825   0.916   3.032 -0.7138 -1.2084  2.2209
   25MOL    H78 7806   0.657   0.736   3.008  1.4596  0.2935  1.1827
   25MOL    H79 7807   0.411   0.786   3.017 -0.3190 -1.3086  1.1365
   25MOL    H80 7808   0.292   1.139   3.238 -0.5868  0.2240  0.1790
   25MOL    H81 7809   0.138   1.075   3.223  0.7113  2.3754  3.0661
   25MOL    C82 7810   0.274   0.930   3.308 -0.0175 -0.2063 -0.0686
   25MOL    C83 7811   0.241   0.984   3.443 -0.1251 -0.5101 -0.2362
   25MOL    C84 7812   0.340   0.987   3.544 -0.5447 -0.6283 -0.1480
   25MOL    C85 7813   0.306   1.035   3.674  0.7747 -0.3663  0.4586
   25MOL   Cl86 7814   0.422   1.033   3.795 -0.2870 -0.1223 -0.1800
   25MOL    C87 7815   0.178   1.077   3.707 -0.5479  0.1635  0.4227
   25MOL    C88 7816   0.082   1.079   3.599 -0.0951  0.3856 -0.5862
   25MOL    C89 7817   0.110   1.034   3.467  0.2369 -0.2862  0.0062
   25MOL    C90 7818   0.189   0.799   3.282 -0.5698 -0.1705  0.4346
   25MOL    H91 7819   0.382   0.913   3.311  0.1877  1.2189  0.9255
   25MOL    H92 7820   0.442   0.952   3.535 -0.4407 -0.8764  1.9235
   25MOL    H93 7821   0.145   1.120   3.800 -3.4300 -0.4244 -0.2665
   25MOL    H94 7822   8.420   1.122   3.618 -0.3915  1.0993 -3.4632
   25MOL    H95 7823   0.028   1.032   3.397  0.8845 -1.1025 -0.7360
   25MOL    H96 7824   0.082   0.821   3.273 -0.2360  1.0140 -0.8371
   25MOL    H97 7825   0.214   0.755   3.186  0.0930 -1.1574  1.0583
   25MOL    C98 7826   0.220   0.687   3.391  0.0349 -0.6514 -0.4273
   25MOL    C99 7827   0.105   0.657   3.484 -0.6451  0.7036  0.2250
   25MOL   C100 7828   0.107   0.704   3.620 -1.1551  0.0226 -0.0666
   25MOL   C101 7829   0.005   0.671   3.710  0.3634  0.1656 -0.1401
   25MOL  Cl102 7830   0.006   0.754   3.861 -0.1937  0.2788 -0.0309
   25MOL   C103 7831   8.332   0.599   3.672  0.1283  0.3248 -0.7186
   25MOL   C104 7832   8.330   0.536   3.545  0.2199 -0.5249 -0.3986
   25MOL   C105 7833   0.002   0.561   3.454 -0.2253 -0.7698  0.1007
   25MOL   C106 7834   0.257   0.561   3.314 -0.5510  0.4695  0.2735
   25MOL   H107 7835   0.291   0.733   3.460 -1.4419  1.6995 -0.4182
   25MOL   H108 7836   0.187   0.772   3.644  1.7085 -3.4743  0.7222
   25MOL   H109 7837   8.245   0.582   3.734  2.9462 -1.5941  2.8622
   25MOL   H110 7838   8.246   0.478   3.508  0.4507 -1.0198 -0.1502
   25MOL   H111 7839   8.426   0.527   3.352 -0.0755  1.3249 -0.6471
   25MOL   H112 7840   0.259   0.480   3.388  0.2702  1.1450  1.0053
   25MOL   H113 7841   0.179   0.529   3.245 -1.8334  1.9932  0.9826
   25MOL   C114 7842   0.404   0.551   3.258  0.3706 -0.0412  0.6800
   25MOL   C115 7843   0.507   0.588   3.362  0.6039  0.3038  0.2281
   25MOL   C116 7844   0.488   0.552   3.501 -0.1002 -0.2426  0.4125
   25MOL   C117 7845   0.600   0.569   3.583 -0.0041 -0.2478 -0.4847
   25MOL  Cl118 7846   0.583   0.515   3.742 -0.3251  0.0935  0.3938
   25MOL   C119 7847   0.718   0.635   3.541  0.0506 -0.2548  0.0645
   25MOL   C120 7848   0.732   0.670   3.407  0.0780  0.6201  0.1146
   25MOL   C121 7849   0.624   0.653   3.321  0.1360  0.3269  0.0925
   25MOL   C122 7850   0.435   0.414   3.200  0.3555  0.9857  0.2741
   25MOL   H123 7851   0.408   0.629   3.181 -2.0155 -1.2059 -0.6849
   25MOL   H124 7852   0.397   0.504   3.535  0.3564 -0.7009  1.0024
   25MOL   H125 7853   0.798   0.642   3.613  0.1748  0.7831 -0.1696
   25MOL   H126 7854   0.821   0.717   3.368  1.4951 -0.2703  2.1872
   25MOL   H127 7855   0.631   0.676   3.215 -0.0768 -0.0710 -0.0068
   25MOL   H128 7856   0.543   0.407   3.181  0.0283  1.2231 -1.7959
   25MOL   H129 7857   0.413   0.337   3.273 -2.4021 -0.6062 -2.1492
   25MOL   C130 7858   0.353   0.374   3.077  0.4757  0.4567  0.0657
   25MOL   C131 7859   0.381   0.482   2.964 -0.1337  0.3625 -0.3625
   25MOL   C132 7860   0.514   0.490   2.903  0.2981  0.1430 -0.9145
   25MOL   C133 7861   0.548   0.580   2.797 -0.0241  0.2594  0.4052
   25MOL  Cl134 7862   0.704   0.566   2.728  0.1324 -0.5354  0.2620
   25MOL   C135 7863   0.444   0.665   2.754 -0.2897  0.4056  1.0326
   25MOL   C136 7864   0.317   0.665   2.815  0.0896  0.3647  0.4423
   25MOL   C137 7865   0.281   0.576   2.923  0.0023 -0.1118 -0.7320
   25MOL   C138 7866   0.390   0.231   3.037 -0.0774  0.0649  0.5484
   25MOL   H139 7867   0.250   0.377   3.112  0.0779  0.4585 -1.0805
   25MOL   H140 7868   0.590   0.420   2.936  0.5589  0.3736 -1.0253
   25MOL   H141 7869   0.457   0.726   2.666 -2.6759 -0.5029 -0.0053
   25MOL   H142 7870   0.240   0.721   2.763 -0.3781  0.6120  1.3868
   25MOL   H143 7871   0.184   0.566   2.970  0.5310 -0.3175  0.3303
   25MOL   H144 7872   0.497   0.217   3.021  0.3051  0.8378  2.2560
   25MOL   H145 7873   0.369   0.165   3.121  0.3774 -0.4814  0.2375
   25MOL   C146 7874   0.321   0.186   2.907  0.2904 -0.3385 -0.2220
   25MOL   C147 7875   0.394   0.060   2.866 -0.1768 -0.7874  0.1565
   25MOL   C148 7876   0.500   0.056   2.772  1.5451 -0.0954 -0.9958
   25MOL   C149 7877   0.554   8.375   2.723 -0.7030  0.0963 -0.3361
   25MOL  Cl150 7878   0.687   8.377   2.610 -0.1893 -0.5205 -0.1283
   25MOL   C151 7879   0.505   8.253   2.774  0.7130  0.3812 -0.7775
   25MOL   C152 7880   0.413   8.261   2.879 -0.1551 -0.5810  0.0216
   25MOL   C153 7881   0.345   8.379   2.921  0.0133  0.1792 -0.0614
   25MOL   C154 7882   0.163   0.175   2.912  0.9447  0.4616 -0.2265
   25MOL   H155 7883   0.352   0.260   2.833  1.2829 -1.3596 -0.8526
   25MOL   H156 7884   0.549   0.148   2.744  3.1801 -0.9017 -0.8506
   25MOL   H157 7885   0.556   8.164   2.741  0.3691  0.7009 -2.1835
   25MOL   H158 7886   0.361   8.168   2.901 -2.5401  0.2723 -1.8016
   25MOL   H159 7887   0.274   8.363   3.001 -0.5390 -0.9657 -0.7638
   25MOL   H160 7888   0.150   0.101   2.991 -0.0110 -1.0367 -1.7439
   25MOL   H161 7889   0.117   0.262   2.958  0.8046  1.0920 -1.5157
   25MOL   C162 7890   0.101   0.142   2.780  0.1369  0.7189  0.0792
   25MOL   C163 7891   8.408   0.065   2.793 -0.1369 -0.3136  0.5328
   25MOL   C164 7892   8.386   8.388   2.718 -0.8373  0.5923  0.1040
   25MOL   C165 7893   8.271   8.307   2.731  0.2340  0.3146  0.0675
   25MOL  Cl166 7894   8.262   8.155   2.644 -0.2015  0.3066 -0.2177
   25MOL   C167 7895   8.174   8.338   2.825  0.3289  0.1619  0.0312
   25MOL   C168 7896   8.186   0.030   2.892 -0.2297  0.4353 -0.4447
   25MOL   C169 7897   8.307   0.110   2.878  0.3171  0.0865  0.4726
   25MOL   C170 7898   0.086   0.271   2.693  0.1387 -0.6862  0.2472
   25MOL   H171 7899   0.167   0.065   2.741  1.0375  1.4049  0.2154
   25MOL   H172 7900   0.025   8.362   2.644 -0.5865 -1.1333  0.9403
   25MOL   H173 7901   8.082   8.283   2.837  1.0503 -1.5361 -1.9630
   25MOL   H174 7902   8.110   0.054   2.964  1.8953  2.3902  1.2297
   25MOL   H175 7903   8.319   0.198   2.940 -1.4132  0.8542 -0.2267
   25MOL   H176 7904   0.005   0.331   2.732 -0.4729  0.2917 -2.4185
   25MOL   H177 7905   0.174   0.334   2.707 -1.4386  1.3818  1.1137
   25MOL   C178 7906   0.071   0.260   2.539 -0.1674  0.1351 -0.3730
   25MOL   C179 7907   0.025   0.383   2.459 -0.5638 -0.7262 -0.4657
   25MOL   C180 7908   8.380   0.372   2.343 -0.1375 -0.2602  0.1989
   25MOL   C181 7909   8.354   0.485   2.261 -0.5876 -0.5185 -0.2998
   25MOL  Cl182 7910   8.263   0.484   2.121  0.0622  0.2287 -0.1189
   25MOL   C183 7911   8.411   0.608   2.299 -0.4827  1.1027 -0.1143
   25MOL   C184 7912   0.063   0.622   2.411  0.7244 -0.8736 -0.3029
   25MOL   C185 7913   0.083   0.509   2.497 -0.1393  0.5698  0.1931
   25MOL   C186 7914   0.199   0.208   2.464 -0.3879 -1.2531  1.1204
   25MOL   H187 7915   8.430   0.186   2.516 -0.4369  0.4567 -0.5292
   25MOL   H188 7916   8.335   0.276   2.322 -2.4265  0.8376 -0.0752
   25MOL   H189 7917   8.394   0.699   2.243  0.9362  2.1376  1.0919
   25MOL   H190 7918   0.117   0.714   2.426 -0.2953 -0.1156 -1.1501
   25MOL   H191 7919   0.159   0.517   2.573 -0.3669  1.5459  0.3310
   25MOL   H192 7920   0.213   0.270   2.375  2.6998 -1.6587  1.2740
   25MOL   H193 7921   0.283   0.225   2.531  0.7081 -0.5215 -0.4235
   25MOL   C194 7922   0.200   0.060   2.415  0.1569 -0.8489 -0.1057
   25MOL   C195 7923   0.095   0.031   2.312 -0.4398 -0.0454 -0.5018
   25MOL   C196 7924   0.000   8.369   2.342  0.4067  0.2010 -0.5289
   25MOL   C197 7925   8.332   8.345   2.249 -0.1046 -0.1159  0.1283
   25MOL  Cl198 7926   8.204   8.236   2.289  0.0763  0.1297 -0.0877
   25MOL   C199 7927   8.315   8.422   2.131 -0.0389  0.2856  0.2341
   25MOL   C200 7928   8.412   0.077   2.105 -0.3051  0.6535  0.9578
   25MOL   C201 7929   0.088   0.104   2.186 -0.2626 -0.1916  0.0522
   25MOL   C202 7930   0.342   0.005   2.374  1.1975 -0.7184 -0.1783
   25MOL   H203 7931   0.173   0.004   2.505  0.5216 -0.7730  0.0514
   25MOL   H204 7932   8.429   8.319   2.438 -1.3351  0.2838 -0.5947
   25MOL   H205 7933   8.253   8.383   2.052  0.4785 -1.0088  0.4597
   25MOL   H206 7934   8.415   0.135   2.014  0.9447  1.4826  1.5165
   25MOL   H207 7935   0.159   0.181   2.159  2.5536 -2.8333 -0.3713
   25MOL   H208 7936   0.382   0.082   2.307 -0.8389 -0.2308 -0.8688
   25MOL   H209 7937   0.417   0.013   2.452  1.4330  1.8582 -0.6100
   25MOL   C210 7938   0.346   8.297   2.315  0.3497  0.9912 -0.0443
   25MOL   C211 7939   0.484   8.261   2.260  0.6309  0.2562  0.1891
   25MOL   C212 7940   0.584   8.209   2.340 -0.4857  0.9210  0.3464
   25MOL   C213 7941   0.710   8.176   2.286 -0.1108 -0.0638  0.8506
   25MOL  Cl214 7942   0.833   8.116   2.388 -0.5219  0.1336 -0.4546
   25MOL   C215 7943   0.739   8.183   2.152  0.2779  0.1160  0.5870
   25MOL   C216 7944   0.638   8.234   2.069  0.3190 -0.3347  0.4494
   25MOL   C217 7945   0.512   8.274   2.119 -0.7014  0.4949  0.5072
   25MOL   C218 7946   0.293   8.203   2.432 -0.2329 -0.0151  0.2239
   25MOL   H219 7947   0.280   8.288   2.229 -0.6343  1.4451  0.6611
   25MOL   H220 7948   0.571   8.203   2.447  0.3463 -0.1279  0.3949
   25MOL   H221 7949   0.835   8.154   2.112 -0.4312 -1.0568 -0.3231
   25MOL   H222 7950   0.657   8.260   1.966 -0.6567 -0.4275  0.2435
   25MOL   H223 7951   0.446   8.321   2.047  2.7130  0.2020 -2.9332
   25MOL   H224 7952   0.366   8.219   2.512 -0.0820  1.0444 -0.1151
   25MOL   H225 7953   0.193   8.228   2.467 -0.0944 -0.3807  0.8947
   25MOL   C226 7954   0.291   8.052   2.412 -1.0933 -0.4752 -0.2106
   25MOL   C227 7955   0.320   7.992   2.546  0.3540  0.2939  0.2332
   25MOL   C228 7956   0.235   8.002   2.655  0.7641 -0.5390 -0.6368
   25MOL   C229 7957   0.273   7.949   2.778 -0.0043 -0.2808  0.2431
   25MOL  Cl230 7958   0.171   7.967   2.921  0.0148  0.1666  0.1021
   25MOL   C231 7959   0.400   7.882   2.788 -0.6026  0.9158  0.0512
   25MOL   C232 7960   0.488   7.875   2.681  0.9446 -0.1713  0.4290
   25MOL   C233 7961   0.446   7.930   2.559 -0.5779 -0.1110 -0.7209
   25MOL   C234 7962   0.165   7.982   2.352 -0.1831  0.3612  0.0661
   25MOL   H235 7963   0.374   8.028   2.347 -1.6915  0.0441 -1.1733
   25MOL   H236 7964   0.148   8.066   2.647 -1.3352 -3.0913  1.1069
   25MOL   H237 7965   0.439   7.854   2.884  1.7497 -0.7946 -1.3512
   25MOL   H238 7966   0.586   7.830   2.688 -0.6785 -3.7893  0.8136
   25MOL   H239 7967   0.518   7.916   2.480  0.0240 -0.2847 -0.1438
   25MOL   H240 7968   0.161   7.880   2.389 -1.5146  0.2114 -0.4747
   25MOL   H241 7969   0.069   8.028   2.375 -1.0876  0.4590 -3.5980
   25MOL   C242 7970   0.174   7.948   2.201 -0.2555  0.5259 -0.4634
   25MOL   C243 7971   0.050   7.852   2.181  0.0421  0.3555  0.3022
   25MOL   C244 7972   0.066   7.713   2.172 -0.1300 -0.5180  0.8571
   25MOL   C245 7973   8.398   7.622   2.168 -0.1149  0.2452 -0.3496
   25MOL  Cl246 7974   0.008   7.456   2.152  0.1324  0.1174  0.3237
   25MOL   C247 7975   8.264   7.667   2.172  0.8024  0.7095  0.7693
   25MOL   C248 7976   8.242   7.805   2.174  0.0456 -0.2639  0.3988
   25MOL   C249 7977   8.348   7.898   2.188 -0.3560 -0.1955 -0.0281
   25MOL   C250 7978   0.173   8.068   2.110  0.4092 -0.3167  0.0702
   25MOL   H251 7979   0.264   7.893   2.172 -0.6311 -0.8331  0.8669
   25MOL   H252 7980   0.163   7.666   2.166  0.1157  0.2638 -2.6644
   25MOL   H253 7981   8.194   7.589   2.149  1.2548  0.3304  0.6528
   25MOL   H254 7982   8.143   7.840   2.152  0.2585  1.6504  2.2185
   25MOL   H255 7983   8.320   8.001   2.204  1.3234  0.3682 -0.6189
   25MOL   H256 7984   0.124   8.159   2.146  0.4078  0.0526 -0.8591
   25MOL   H257 7985   0.274   8.111   2.109  0.3694 -0.2351 -0.9832
   25MOL   C258 7986   0.121   8.038   1.964 -0.2989  0.3811 -0.5654
   25MOL   C259 7987   0.105   8.163   1.878 -0.1794 -0.8899 -0.0125
   25MOL   C260 7988   8.413   8.225   1.860 -0.0007 -0.7977 -0.5127
   25MOL   C261 7989   8.410   8.334   1.770  0.7090 -0.9146  0.7915
   25MOL  Cl262 7990   8.260   8.422   1.767  0.0443  0.3732  0.0466
   25MOL   C263 7991   0.088   8.382   1.703 -0.6670  0.2803  0.0789
   25MOL   C264 7992   0.215   8.325   1.733  0.8320 -0.3735  0.5645
   25MOL   C265 7993   0.220   8.216   1.821  0.6471 -0.0310 -0.7215
   25MOL   C266 7994   0.200   7.926   1.890 -0.1687  0.0394 -0.0609
   25MOL   H267 7995   0.019   8.000   1.973  0.2874 -1.4116 -1.3034
   25MOL   H268 7996   8.321   8.196   1.909  1.4913 -0.2508  2.7620
   25MOL   H269 7997   0.089   0.032   1.637  1.7629  0.4243  0.2800
   25MOL   H270 7998   0.301   8.358   1.677  1.4897 -2.5777  0.2296
   25MOL   H271 7999   0.320   8.177   1.832  1.1663  1.4629 -0.0270
   25MOL   H272 8000   0.240   7.963   1.796  1.4107 -2.1838 -0.3175
   25MOL   H273 8001   0.285   7.905   1.956 -0.2284  0.7448  0.2388
   25MOL   C274 8002   0.109   7.806   1.844 -0.4636  0.4789 -0.6037
   25MOL   C275 8003   8.419   7.853   1.775 -0.3351  0.6203 -0.7078
   25MOL   C276 8004   8.295   7.806   1.826 -0.6760 -0.5629 -0.7058
   25MOL   C277 8005   8.183   7.866   1.775 -0.0671 -0.4760  0.3017
   25MOL  Cl278 8006   8.039   7.817   1.856  0.5007 -0.0463 -0.3623
   25MOL   C279 8007   8.182   7.956   1.665 -0.1663  0.2024  0.4736
   25MOL   C280 8008   8.308   7.991   1.609  0.1194 -0.3646 -0.0323
   25MOL   C281 8009   8.424   7.934   1.660 -0.3001  0.1821  0.0805
   25MOL   C282 8010   0.189   7.715   1.751 -0.3633 -0.5831 -0.2397
   25MOL   H283 8011   0.076   7.751   1.932 -2.0325  0.0033 -1.4764
   25MOL   H284 8012   8.290   7.739   1.910 -2.2112 -1.3345 -1.3899
   25MOL   H285 8013   8.085   7.989   1.631 -0.1902  0.8338  1.1648
   25MOL   H286 8014   8.318   8.060   1.526 -2.3467  0.5703  0.4176
   25MOL   H287 8015   0.089   7.964   1.631  0.2065 -0.4218  1.1503
   25MOL   H288 8016   0.141   7.619   1.730 -0.2088 -0.6672 -0.2129
   25MOL   H289 8017   0.190   7.769   1.657  0.3366 -1.6657 -0.8700
   25MOL   C290 8018   0.337   7.687   1.788 -0.2950  0.0860 -0.2901
   25MOL   C291 8019   0.355   7.622   1.930 -0.1810 -0.0405 -0.1475
   25MOL   C292 8020   0.448   7.687   2.011  0.2383  0.0840 -0.1611
   25MOL   C293 8021   0.465   7.649   2.145  0.4583 -0.1528 -0.0966
   25MOL  Cl294 8022   0.579   7.734   2.233  0.1394  0.4071 -0.0367
   25MOL   C295 8023   0.389   7.545   2.201 -0.2334 -0.0460 -0.3054
   25MOL   C296 8024   0.310   7.471   2.117  0.6906 -0.0171  0.1416
   25MOL   C297 8025   0.296   7.504   1.980  0.1122 -0.6657 -0.0857
   25MOL   C298 8026   0.406   7.603   1.679  0.3550 -0.9486  0.8144
   25MOL   H299 8027   0.380   7.787   1.792  0.4048 -0.3062  3.6554
   25MOL   H300 8028   0.496   7.780   1.984  0.9131 -0.4589 -0.8732
   25MOL   H301 8029   0.397   7.524   2.307  0.0786 -0.3645 -0.3925
   25MOL   H302 8030   0.273   7.380   2.161  2.5405 -1.9431 -2.1433
   25MOL   H303 8031   0.230   7.444   1.919  0.7356 -0.7468 -0.6941
   25MOL   H304 8032   0.512   7.589   1.703  0.7964 -1.1118 -1.1792
   25MOL   H305 8033   0.373   7.500   1.693 -2.4102 -0.5684 -2.3716
   25MOL   C306 8034   0.394   7.655   1.537 -0.4283  0.1405  0.4571
   25MOL   C307 8035   0.428   7.800   1.517 -0.5726 -0.2826 -0.5762
   25MOL   C308 8036   0.334   7.885   1.461 -0.0733  0.0189 -0.4945
   25MOL   C309 8037   0.364   8.020   1.436 -0.6771 -0.4655  0.7789
   25MOL  Cl310 8038   0.255   8.111   1.346 -0.0176  0.2576  0.1783
   25MOL   C311 8039   0.487   8.071   1.486  0.2262  0.4908  0.0026
   25MOL   C312 8040   0.577   7.980   1.554 -0.2952 -0.6201  0.4955
   25MOL   C313 8041   0.553   7.843   1.563 -0.6499  0.1367 -0.5887
   25MOL   C314 8042   0.477   7.563   1.449 -0.3700 -0.7233 -1.1625
   25MOL   H315 8043   0.290   7.649   1.505  0.3351 -0.4520 -2.0771
   25MOL   H316 8044   0.239   7.840   1.435 -0.0555 -1.3218  1.6642
   25MOL   H317 8045   0.501   8.177   1.477  0.5424  0.2919 -1.9899
   25MOL   H318 8046   0.674   8.017   1.584  0.6643 -0.2689 -2.7830
   25MOL   H319 8047   0.623   7.769   1.598 -0.0167  1.0819  0.2112
   25MOL   H320 8048   0.581   7.574   1.482 -0.1477 -1.0677 -1.7317
   25MOL   H321 8049   0.470   7.457   1.475  2.0281 -0.6031  0.1348
   25MOL   H322 8050   0.475   7.578   1.341  0.1595  0.8192 -0.9693
   26MOL     C1 8051   0.741   2.159   0.295  0.6916  0.8288  0.0778
   26MOL     C2 8052   0.616   2.171   0.199  0.4099 -0.1969  0.3906
   26MOL     C3 8053   0.488   2.175   0.252 -0.2644  0.0105 -0.0476
   26MOL     C4 8054   0.374   2.184   0.166  0.0508  0.9179  0.6038
   26MOL    Cl5 8055   0.226   2.204   0.252 -0.4291 -0.1454 -0.2396
   26MOL     C6 8056   0.390   2.192   0.029 -0.2615  0.0998  0.4653
   26MOL     C7 8057   0.517   2.178   8.407 -0.1689 -0.5703 -0.0271
   26MOL     C8 8058   0.630   2.174   0.058 -0.0412  0.6802  0.4115
   26MOL     C9 8059   0.812   2.284   0.297 -0.4049  1.0552 -0.0091
   26MOL    H10 8060   0.800   2.081   0.248 -1.1823  0.7304 -2.1718
   26MOL    H11 8061   0.471   2.168   0.359 -0.7430 -3.0694 -0.2855
   26MOL    H12 8062   0.309   2.217   8.397  0.5927  0.4890 -0.4345
   26MOL    H13 8063   0.538   2.196   8.302  1.3724  3.0586  0.8236
   26MOL    H14 8064   0.729   2.156   0.020 -0.6179  0.3284 -0.9597
   26MOL    H15 8065   0.858   2.306   0.201 -0.3583  3.4430  0.5388
   26MOL    H16 8066   0.730   2.352   0.318  1.6570  3.6347 -0.1845
   26MOL    H17 8067   0.705   2.124   0.392  0.8389 -2.9574 -1.1577
   26MOL    C18 8068   0.916   2.295   0.407  0.1985  0.6555 -0.4540
   26MOL    C19 8069   1.009   2.178   0.393  0.0390 -0.3946  0.7570
   26MOL    C20 8070   1.000   2.063   0.471  0.1472 -0.3427 -0.0618
   26MOL    C21 8071   1.096   1.954   0.463 -0.8434 -0.3622  0.2303
   26MOL   Cl22 8072   1.073   1.808   0.549  0.1549 -0.1487 -0.2623
   26MOL    C23 8073   1.202   1.968   0.369 -0.6629  0.4316  0.1741
   26MOL    C24 8074   1.208   2.073   0.281 -0.1189 -0.3983 -0.9191
   26MOL    C25 8075   1.112   2.177   0.292 -0.8803  0.1930  0.6637
   26MOL    C26 8076   0.997   2.423   0.407  0.4621 -0.7123 -0.4501
   26MOL    H27 8077   0.862   2.289   0.502 -0.8694 -0.5178 -1.1257
   26MOL    H28 8078   0.917   2.061   0.540  0.5412  0.3793  0.4328
   26MOL    H29 8079   1.265   1.882   0.353 -1.4278 -0.1257  0.1252
   26MOL    H30 8080   1.277   2.076   0.197  1.0337 -0.1180  0.0313
   26MOL    H31 8081   1.129   2.266   0.233 -1.3348  1.2854  2.1809
   26MOL    H32 8082   1.068   2.422   0.489 -0.1736  1.1704  0.1456
   26MOL    H33 8083   1.059   2.439   0.319  0.7133  0.5353 -0.0577
   26MOL    C34 8084   0.906   2.552   0.426 -0.0814 -0.0512  0.2373
   26MOL    C35 8085   0.859   2.562   0.573  0.3232  0.2905  0.3649
   26MOL    C36 8086   0.754   2.479   0.620  0.5271 -0.2838  1.1806
   26MOL    C37 8087   0.700   2.509   0.744  0.3599  0.1664 -0.1897
   26MOL   Cl38 8088   0.555   2.438   0.807 -0.0167 -0.3531 -0.2066
   26MOL    C39 8089   0.757   2.605   0.826  0.1188 -0.8349  0.6383
   26MOL    C40 8090   0.880   2.663   0.792 -0.2426 -0.6716 -0.1259
   26MOL    C41 8091   0.929   2.641   0.668 -0.3738  0.0272  0.4022
   26MOL    C42 8092   0.972   2.689   0.387 -0.8117 -0.6680  0.1874
   26MOL    H43 8093   0.811   2.551   0.373  1.2613  1.8012 -2.3457
   26MOL    H44 8094   0.699   2.415   0.554 -0.1248  0.3460  1.1024
   26MOL    H45 8095   0.723   2.626   0.927 -0.6531  1.2077 -0.0308
   26MOL    H46 8096   0.930   2.738   0.852 -1.1705 -0.8133  0.8542
   26MOL    H47 8097   1.018   2.692   0.633 -1.8482  1.8772 -0.7788
   26MOL    H48 8098   0.922   2.778   0.426  0.2558  1.4474 -3.0772
   26MOL    H49 8099   1.070   2.697   0.433 -0.0450 -1.4195 -1.2960
   26MOL    C50 8100   0.983   2.710   0.232  0.0071  0.1921 -0.4020
   26MOL    C51 8101   0.840   2.728   0.183 -0.5315 -0.1222 -0.6765
   26MOL    C52 8102   0.782   2.857   0.185 -0.2944 -0.4813  0.5113
   26MOL    C53 8103   0.652   2.877   0.135 -0.0627  0.4156 -0.3309
   26MOL   Cl54 8104   0.577   3.031   0.139  0.4338  0.2678 -0.3993
   26MOL    C55 8105   0.585   2.765   0.079  0.1506 -0.1963 -0.3235
   26MOL    C56 8106   0.635   2.638   0.083  0.0525 -0.1481 -0.4356
   26MOL    C57 8107   0.762   2.616   0.144  0.0497 -0.7024  0.2648
   26MOL    C58 8108   1.085   2.817   0.187 -0.0787 -0.1494 -0.5767
   26MOL    H59 8109   1.012   2.619   0.180 -0.6498 -0.1634 -0.1456
   26MOL    H60 8110   0.846   2.942   0.207 -1.4450  0.5918 -0.2327
   26MOL    H61 8111   0.483   2.774   0.043  0.6613 -1.2883 -2.0822
   26MOL    H62 8112   0.570   2.562   0.045 -2.3098  2.0028 -0.8417
   26MOL    H63 8113   0.800   2.515   0.140 -0.5520 -0.8658 -3.1928
   26MOL    H64 8114   1.066   2.856   0.087 -4.0671 -0.1124  0.0954
   26MOL    H65 8115   1.076   2.899   0.258 -1.4852 -1.0504  0.3054
   26MOL    C66 8116   1.229   2.760   0.173 -0.2476  0.2915  0.0229
   26MOL    C67 8117   1.260   2.696   0.042 -0.7867  0.3365  0.3044
   26MOL    C68 8118   1.261   2.559   0.022  0.0667  0.4199  0.4103
   26MOL    C69 8119   1.299   2.506   8.332 -0.2186  0.5972  0.1645
   26MOL   Cl70 8120   1.322   2.333   8.312  0.3711 -0.1453 -0.1236
   26MOL    C71 8121   1.308   2.593   8.223  0.3883  0.4387 -0.1457
   26MOL    C72 8122   1.312   2.730   8.238  0.8855 -0.3090 -0.1243
   26MOL    C73 8123   1.292   2.778   8.367  0.2857 -0.0819 -0.3697
   26MOL    C74 8124   1.334   2.864   0.214  0.2600  1.4574 -0.4231
   26MOL    H75 8125   1.228   2.674   0.241 -1.5203  0.9158  0.8203
   26MOL    H76 8126   1.253   2.494   0.107  1.8657 -0.8678 -0.3670
   26MOL    H77 8127   1.321   2.556   8.122 -2.2046 -1.6309  0.2261
   26MOL    H78 8128   1.332   2.791   8.151  1.0060 -0.5827 -0.2871
   26MOL    H79 8129   1.299   2.882   8.393 -1.4754 -0.1279  0.3608
   26MOL    H80 8130   1.324   2.956   0.156  0.9744  0.8717 -1.4886
   26MOL    H81 8131   1.304   2.891   0.315 -1.5611  1.4254 -0.9343
   26MOL    C82 8132   1.484   2.811   0.213  0.0808  0.0149 -0.5354
   26MOL    C83 8133   1.580   2.930   0.239 -0.0650 -0.8238 -0.1534
   26MOL    C84 8134   1.582   2.996   0.363  0.3302  0.5142 -0.5842
   26MOL    C85 8135   1.667   3.108   0.381  0.7902  0.9196  0.2480
   26MOL   Cl86 8136   1.677   3.179   0.540 -0.0128  0.2593  0.2129
   26MOL    C87 8137   1.756   3.144   0.279  0.1098 -0.2975  0.2852
   26MOL    C88 8138   1.744   3.085   0.153  1.0800 -0.1119 -0.2706
   26MOL    C89 8139   1.662   2.978   0.135 -0.3014 -0.3169  0.1480
   26MOL    C90 8140   1.512   2.683   0.293 -0.3550 -0.0956  0.1729
   26MOL    H91 8141   1.499   2.774   0.112 -1.0977 -4.6596  0.9105
   26MOL    H92 8142   1.526   2.968   0.451  1.9693  0.8061  0.5888
   26MOL    H93 8143   1.834   3.218   0.291 -0.5858  0.2298  1.6940
   26MOL    H94 8144   1.814   3.120   0.078  0.6144  1.0709 -0.1609
   26MOL    H95 8145   1.672   2.922   0.043 -0.5338 -2.1937  1.2210
   26MOL    H96 8146   1.497   2.696   0.400  0.7176  0.0832  0.3041
   26MOL    H97 8147   1.444   2.601   0.265  0.0120 -0.3906  0.1452
   26MOL    C98 8148   1.651   2.621   0.277  0.8674 -0.3205 -0.1784
   26MOL    C99 8149   1.667   2.493   0.359 -0.0435  0.1405 -0.3494
   26MOL   C100 8150   1.587   2.380   0.334  0.0197 -0.5137 -0.6252
   26MOL   C101 8151   1.596   2.274   0.422 -0.0918 -0.0386 -0.0166
   26MOL  Cl102 8152   1.505   2.127   0.398 -0.2262  0.6135  0.1170
   26MOL   C103 8153   1.689   2.269   0.524 -0.1245 -0.5053  0.3356
   26MOL   C104 8154   1.786   2.376   0.539 -0.6754 -0.1476  0.0758
   26MOL   C105 8155   1.766   2.486   0.458  0.3521  0.0274 -0.1369
   26MOL   C106 8156   1.684   2.605   0.126  0.4210 -0.1627 -0.3460
   26MOL   H107 8157   1.715   2.701   0.317 -2.0456  2.3345 -0.6396
   26MOL   H108 8158   1.520   2.385   0.250 -0.3318  2.4327 -0.2467
   26MOL   H109 8159   1.704   2.178   0.579 -2.3469 -1.6463 -0.8794
   26MOL   H110 8160   1.861   2.370   0.616  0.1031 -0.0514 -0.6641
   26MOL   H111 8161   1.836   2.567   0.475  0.2448  0.5294 -2.0239
   26MOL   H112 8162   1.603   2.574   0.060  1.0052 -0.4822 -0.9149
   26MOL   H113 8163   1.710   2.707   0.100  3.8506 -0.8662  0.0863
   26MOL   C114 8164   1.801   2.517   0.090 -0.8673  1.2950 -0.2190
   26MOL   C115 8165   1.819   2.515   8.373  0.3557 -0.1831 -0.2974
   26MOL   C116 8166   1.796   2.631   8.294 -0.2462  0.7523  0.6150
   26MOL   C117 8167   1.794   2.626   8.155 -0.0050 -0.3565  0.0662
   26MOL  Cl118 8168   1.755   2.774   8.077  0.0844  0.0716  0.6336
   26MOL   C119 8169   1.838   2.514   8.084 -0.5510  0.2223 -0.7452
   26MOL   C120 8170   1.857   2.398   8.160 -0.3949 -0.6551 -0.1250
   26MOL   C121 8171   1.851   2.399   8.301 -0.1549  0.3811  1.1308
   26MOL   C122 8172   1.940   2.555   0.158 -0.2190  0.0870  0.1260
   26MOL   H123 8173   1.779   2.412   0.113 -0.6702  1.1739 -0.5735
   26MOL   H124 8174   1.776   2.723   8.346  1.0017  0.2478  2.0131
   26MOL   H125 8175   1.847   2.522   7.976  0.1591  1.0276 -0.6291
   26MOL   H126 8176   1.866   2.301   8.115 -0.1394 -1.2403  1.1824
   26MOL   H127 8177   1.884   2.308   8.350 -0.5034 -1.1456 -1.3803
   26MOL   H128 8178   1.971   2.652   0.119 -1.4444 -0.4421 -2.2544
   26MOL   H129 8179   1.924   2.566   0.266 -2.6314 -4.0922  0.3274
   26MOL   C130 8180   2.052   2.451   0.139  0.4793 -0.1411 -0.1001
   26MOL   C131 8181   2.187   2.502   0.182  0.1550  0.2691 -0.1581
   26MOL   C132 8182   2.302   2.478   0.097  0.3642  0.2464 -0.5950
   26MOL   C133 8183   2.433   2.518   0.137 -0.0068  0.3251 -1.0046
   26MOL  Cl134 8184   2.575   2.497   0.033  0.1278  0.2038  0.4559
   26MOL   C135 8185   2.452   2.573   0.267 -0.1698 -1.1534 -0.0055
   26MOL   C136 8186   2.343   2.592   0.353  0.2553 -0.1293 -0.4745
   26MOL   C137 8187   2.213   2.551   0.310 -0.1447  0.0922 -0.2208
   26MOL   C138 8188   2.017   2.319   0.204  0.1842  0.4379 -0.6087
   26MOL   H139 8189   2.067   2.436   0.032  1.0155 -2.2178  0.2349
   26MOL   H140 8190   2.287   2.432   0.001  1.4281 -1.5121  0.0640
   26MOL   H141 8191   2.553   2.605   0.288 -0.7012  0.0269  0.8209
   26MOL   H142 8192   2.364   2.633   0.450  0.0746  1.9217 -1.2802
   26MOL   H143 8193   2.128   2.555   0.377 -0.0646 -1.0606 -0.0390
   26MOL   H144 8194   1.995   2.339   0.309  0.2135 -1.0093 -0.3161
   26MOL   H145 8195   1.936   2.274   0.147  2.0379 -2.2518 -1.2556
   26MOL   C146 8196   2.131   2.215   0.207 -0.0916 -0.1104  0.2014
   26MOL   C147 8197   2.106   2.092   0.293 -0.1980  0.8400 -0.5432
   26MOL   C148 8198   1.974   2.048   0.316  0.2345 -0.0758 -0.5863
   26MOL   C149 8199   1.955   1.935   0.396 -0.0645 -0.0751  0.1513
   26MOL  Cl150 8200   1.792   1.886   0.435 -0.0661 -0.1377 -0.3428
   26MOL   C151 8201   2.057   1.872   0.466  0.6687 -0.2757 -0.3974
   26MOL   C152 8202   2.188   1.911   0.437  0.3866 -0.0845  0.0069
   26MOL   C153 8203   2.214   2.020   0.355 -0.2162 -0.0020  0.7920
   26MOL   C154 8204   2.155   2.170   0.056  0.4435  0.1891  0.3592
   26MOL   H155 8205   2.227   2.255   0.238  1.3842 -2.4808 -1.0676
   26MOL   H156 8206   1.896   2.092   0.255  1.4291  0.2673 -1.9197
   26MOL   H157 8207   2.040   1.785   0.527 -0.4693  0.1621 -0.0833
   26MOL   H158 8208   2.268   1.850   0.476  1.1303  1.6057  1.1731
   26MOL   H159 8209   2.313   2.057   0.330 -0.5920  1.9991  2.1555
   26MOL   H160 8210   2.063   2.131   0.011  0.6044  0.0727  0.1326
   26MOL   H161 8211   2.184   2.256   8.429 -1.1016 -0.9206 -1.9990
   26MOL   C162 8212   2.274   2.070   0.037 -0.0782  0.6204 -0.0649
   26MOL   C163 8213   2.271   1.998   8.335  0.2083 -0.9126  0.4016
   26MOL   C164 8214   2.250   2.075   8.214  0.6292 -0.6107 -0.2105
   26MOL   C165 8215   2.258   2.017   8.088  0.8400  0.4659  0.0430
   26MOL  Cl166 8216   2.227   2.117   7.943 -0.4034 -0.1789 -0.2559
   26MOL   C167 8217   2.270   1.878   8.073 -0.1348  0.8899 -0.5388
   26MOL   C168 8218   2.284   1.792   8.188 -0.1204  0.4917  0.2301
   26MOL   C169 8219   2.286   1.856   8.319 -0.3271  0.0894  0.3499
   26MOL   C170 8220   2.416   2.136   0.056  0.0401 -0.2947 -0.4917
   26MOL   H171 8221   2.261   1.991   0.111  0.3090  0.1920 -0.4563
   26MOL   H172 8222   2.229   2.181   8.212  2.1961 -0.3013 -1.4091
   26MOL   H173 8223   2.265   1.840   7.972 -0.4189  1.0668 -0.5942
   26MOL   H174 8224   2.295   1.686   8.175 -3.2073  0.2306 -0.5816
   26MOL   H175 8225   2.289   1.789   8.403  3.4743 -0.2173  0.0330
   26MOL   H176 8226   2.428   2.214   8.416 -0.7036 -0.8010 -1.1404
   26MOL   H177 8227   2.412   2.190   0.151 -0.5924 -1.5569  0.2115
   26MOL   C178 8228   2.545   2.044   0.059  0.1801 -0.3902 -0.5219
   26MOL   C179 8229   2.603   2.029   8.349 -0.2189  0.0536  0.3588
   26MOL   C180 8230   2.596   1.905   8.277 -0.3520 -0.6496 -0.0410
   26MOL   C181 8231   2.666   1.896   8.151 -0.0588  0.5152  0.4337
   26MOL  Cl182 8232   2.637   1.751   8.049  0.1315  0.2681 -0.0387
   26MOL   C183 8233   2.732   2.002   8.092 -0.7818 -0.1043  0.5141
   26MOL   C184 8234   2.736   2.126   8.161  0.1442 -0.6555 -0.7384
   26MOL   C185 8235   2.671   2.139   8.291 -0.8482 -0.0226  0.1270
   26MOL   C186 8236   2.646   2.114   0.155 -0.5100 -0.6628 -0.2532
   26MOL   H187 8237   2.511   1.943   0.083  0.3063 -0.4277 -0.5032
   26MOL   H188 8238   2.542   1.818   8.312  2.1824 -3.1096 -1.9949
   26MOL   H189 8239   2.763   1.984   7.991  0.5132  3.0232  0.3083
   26MOL   H190 8240   2.789   2.210   8.119  0.5966 -0.5291  0.0795
   26MOL   H191 8241   2.667   2.234   8.344 -4.5469 -0.0018 -0.0849
   26MOL   H192 8242   2.744   2.073   0.129 -0.4377 -1.8743  1.8959
   26MOL   H193 8243   2.644   2.223   0.153 -1.3635 -0.6227  1.7126
   26MOL   C194 8244   2.630   2.078   0.307  0.8585  0.2012  0.0496
   26MOL   C195 8245   2.658   1.931   0.331 -0.6002  0.6225 -0.3505
   26MOL   C196 8246   2.551   1.838   0.332  0.2194  0.9946  0.0203
   26MOL   C197 8247   2.569   1.706   0.378 -0.8980  0.1190 -0.4693
   26MOL  Cl198 8248   2.443   1.588   0.379 -0.2175 -0.4504 -0.4309
   26MOL   C199 8249   2.694   1.661   0.418  0.0992 -0.0343 -0.3061
   26MOL   C200 8250   2.807   1.756   0.430 -0.0477 -0.5748 -0.3249
   26MOL   C201 8251   2.780   1.890   0.387 -0.2330 -0.3018 -0.4110
   26MOL   C202 8252   2.694   2.182   0.402  0.4146  0.9643 -0.1703
   26MOL   H203 8253   2.527   2.084   0.343  0.8436 -0.1796  0.0690
   26MOL   H204 8254   2.455   1.878   0.303 -0.8507 -0.3918  1.5703
   26MOL   H205 8255   2.706   1.555   0.431 -1.5054 -0.4545 -2.1482
   26MOL   H206 8256   2.897   1.713   0.472 -0.0076  0.3655  0.5766
   26MOL   H207 8257   2.854   1.968   0.394 -1.1119  0.6816 -1.9233
   26MOL   H208 8258   2.786   2.212   0.352  0.6102  0.4877 -0.0944
   26MOL   H209 8259   2.642   2.278   0.393 -0.8607  0.2607 -0.4000
   26MOL   C210 8260   2.715   2.162   0.553 -0.6799  0.3199  0.0563
   26MOL   C211 8261   2.766   2.293   0.616 -0.2047 -0.5765  0.3681
   26MOL   C212 8262   2.893   2.302   0.682  0.6610 -0.0232 -0.2271
   26MOL   C213 8263   2.940   2.424   0.727 -0.3703  0.8248 -0.7985
   26MOL  Cl214 8264   3.104   2.432   0.780 -0.3416  0.0423  0.1670
   26MOL   C215 8265   2.862   2.544   0.712 -0.4939 -0.0123 -0.8109
   26MOL   C216 8266   2.736   2.538   0.658  0.1259  0.1953  0.5470
   26MOL   C217 8267   2.689   2.414   0.602 -0.3126  0.9959 -0.6121
   26MOL   C218 8268   2.600   2.112   0.635 -0.5040 -0.4114  0.0793
   26MOL   H219 8269   2.792   2.085   0.560 -0.9645  0.1060  1.0981
   26MOL   H220 8270   2.968   2.225   0.688  1.1051  0.6162  4.1058
   26MOL   H221 8271   2.904   2.642   0.732 -0.3341 -0.1974 -0.2342
   26MOL   H222 8272   2.676   2.627   0.651 -0.3986 -0.2323 -0.5407
   26MOL   H223 8273   2.585   2.406   0.572 -0.0894  1.3168 -1.4865
   26MOL   H224 8274   2.565   2.187   0.706  0.6469  0.0997  0.1144
   26MOL   H225 8275   2.514   2.099   0.569 -0.7689 -0.8135  0.4977
   26MOL   C226 8276   2.606   1.983   0.715 -0.4442  0.2724 -0.6025
   26MOL   C227 8277   2.706   1.974   0.828  0.4153 -0.0826  0.1918
   26MOL   C228 8278   2.754   2.086   0.899 -0.5392 -0.2378 -0.6947
   26MOL   C229 8279   2.864   2.071   0.993  0.6657 -0.0416 -0.5166
   26MOL  Cl230 8280   2.941   2.215   1.061  0.2857 -0.0164  0.0102
   26MOL   C231 8281   2.919   1.948   1.028  0.8204 -0.9995 -0.2214
   26MOL   C232 8282   2.866   1.838   0.959  0.4541 -0.1788  0.4420
   26MOL   C233 8283   2.761   1.849   0.863 -0.0954  1.0484  0.6996
   26MOL   C234 8284   2.457   1.956   0.766 -0.0665 -0.1980 -0.3933
   26MOL   H235 8285   2.636   1.901   0.649 -0.3561 -0.1171 -0.0815
   26MOL   H236 8286   2.722   2.188   0.896  2.5264  0.8551  0.9600
   26MOL   H237 8287   2.989   1.940   1.111  1.0641 -0.5747 -0.3857
   26MOL   H238 8288   2.889   1.735   0.982 -2.0726 -1.5329 -2.7368
   26MOL   H239 8289   2.729   1.759   0.811  3.1400  0.3557 -0.2086
   26MOL   H240 8290   2.430   2.030   0.842 -0.6883 -0.1970 -0.6121
   26MOL   H241 8291   2.381   1.978   0.692  0.0617 -1.6237 -0.9489
   26MOL   C242 8292   2.430   1.832   0.847  0.3783  0.5739  0.0288
   26MOL   C243 8293   2.301   1.846   0.925  0.2136  0.2599  0.2323
   26MOL   C244 8294   2.180   1.861   0.853  0.4148 -0.0392 -0.0025
   26MOL   C245 8295   2.057   1.871   0.910 -0.0711 -0.3700 -0.1771
   26MOL  Cl246 8296   1.919   1.877   0.813 -0.3632 -0.0632  0.0774
   26MOL   C247 8297   2.050   1.873   1.050 -0.1448  0.3089 -0.4520
   26MOL   C248 8298   2.168   1.864   1.136  0.2303  0.1768  0.6147
   26MOL   C249 8299   2.293   1.856   1.066  0.5230  0.1078  0.1860
   26MOL   C250 8300   2.432   1.707   0.760  0.2136 -0.3292  0.1601
   26MOL   H251 8301   2.504   1.819   0.926  0.1365 -0.3385  0.1136
   26MOL   H252 8302   2.184   1.855   0.745  1.1067  0.8667 -0.0315
   26MOL   H253 8303   1.952   1.880   1.094  1.0478  3.4448  1.8784
   26MOL   H254 8304   2.168   1.881   1.243  1.2395  1.5570  0.4134
   26MOL   H255 8305   2.380   1.846   1.129  0.5678  2.9327  0.6635
   26MOL   H256 8306   2.383   1.733   0.666  0.1090  0.2395  0.3717
   26MOL   H257 8307   2.537   1.686   0.737  0.5263  2.7772 -1.5110
   26MOL   C258 8308   2.355   1.583   0.818 -0.0672  0.5492 -0.5013
   26MOL   C259 8309   2.315   1.481   0.717  0.2492  0.5215  0.2937
   26MOL   C260 8310   2.408   1.404   0.639  0.1264 -0.0136 -0.5082
   26MOL   C261 8311   2.357   1.307   0.551 -0.0755  0.8472  0.0010
   26MOL  Cl262 8312   2.469   1.217   0.465  0.3755 -0.0452 -0.0305
   26MOL   C263 8313   2.219   1.297   0.524  0.1258  0.3416 -0.5668
   26MOL   C264 8314   2.128   1.385   0.585 -0.1962 -0.6512 -0.4928
   26MOL   C265 8315   2.179   1.466   0.687 -0.2895 -0.4371 -0.5197
   26MOL   C266 8316   2.429   1.506   0.931 -0.0305 -0.5275 -0.0062
   26MOL   H267 8317   2.265   1.615   0.871  0.6554  1.4992  0.1800
   26MOL   H268 8318   2.513   1.400   0.664 -0.4462 -2.2872  1.8790
   26MOL   H269 8319   2.182   1.230   0.449  0.1868  1.5593 -1.7057
   26MOL   H270 8320   2.025   1.385   0.553  0.0399 -2.4975 -1.3506
   26MOL   H271 8321   2.106   1.537   0.725 -1.5120 -2.5633  1.2349
   26MOL   H272 8322   2.497   1.428   0.900  0.2375 -0.3115  0.0298
   26MOL   H273 8323   2.492   1.574   0.989 -0.6845  0.0581  0.0173
   26MOL   C274 8324   2.345   1.440   1.045 -0.0496 -0.1720  0.2324
   26MOL   C275 8325   2.214   1.373   0.996  0.3045 -0.0407 -0.0190
   26MOL   C276 8326   2.094   1.446   1.005  0.4046 -0.0573 -0.4698
   26MOL   C277 8327   1.983   1.389   0.950 -0.7256  0.1774  0.4247
   26MOL  Cl278 8328   1.839   1.481   0.939 -0.0954  0.2054  0.1727
   26MOL   C279 8329   1.980   1.258   0.904  0.7520 -0.0383 -0.0865
   26MOL   C280 8330   2.099   1.176   0.900  0.0363 -1.0556 -0.0003
   26MOL   C281 8331   2.212   1.236   0.950  0.5348  0.4930 -1.3366
   26MOL   C282 8332   2.427   1.351   1.129  1.0203 -0.0457 -0.2067
   26MOL   H283 8333   2.304   1.519   1.108  0.2807 -1.1788  1.7229
   26MOL   H284 8334   2.096   1.551   1.027  1.5030  0.4147 -2.6565
   26MOL   H285 8335   1.889   1.209   0.872  1.2870 -0.5764 -0.8034
   26MOL   H286 8336   2.100   1.075   0.862  2.9851 -0.8409 -0.6186
   26MOL   H287 8337   2.300   1.174   0.958 -0.0913 -0.0750  1.7549
   26MOL   H288 8338   2.363   1.280   1.182 -0.8134  2.4832  1.0979
   26MOL   H289 8339   2.469   1.277   1.062 -0.1318 -2.2986  1.4817
   26MOL   C290 8340   2.535   1.406   1.221 -0.0875  0.2285  0.3035
   26MOL   C291 8341   2.454   1.460   1.343 -0.3624 -0.2328  0.6332
   26MOL   C292 8342   2.443   1.602   1.349 -0.5727 -0.4847 -0.3168
   26MOL   C293 8343   2.371   1.662   1.461  0.4552 -0.2040  0.3602
   26MOL  Cl294 8344   2.344   1.833   1.476  0.0116 -0.3573 -0.2166
   26MOL   C295 8345   2.313   1.577   1.558  0.2755 -0.1990 -0.0083
   26MOL   C296 8346   2.317   1.433   1.545  0.1026 -0.3488 -0.6629
   26MOL   C297 8347   2.391   1.380   1.439  0.3792  0.1800 -0.8946
   26MOL   C298 8348   2.634   1.302   1.274  0.7544  0.0185 -0.5761
   26MOL   H299 8349   2.590   1.490   1.180 -1.2650  1.4460  1.1535
   26MOL   H300 8350   2.477   1.682   1.285 -2.4147  2.3710  2.1507
   26MOL   H301 8351   2.270   1.618   1.648 -1.9516  0.0984 -1.1680
   26MOL   H302 8352   2.277   1.369   1.623 -2.9805 -1.5466 -3.1180
   26MOL   H303 8353   2.394   1.275   1.416  1.4367 -0.6228  2.5688
   26MOL   H304 8354   2.689   1.363   1.345  0.1658 -0.8596  0.6676
   26MOL   H305 8355   2.595   1.223   1.339  2.1253 -0.5576 -0.4459
   26MOL   C306 8356   2.728   1.228   1.165  0.2519  0.0576  0.3152
   26MOL   C307 8357   2.806   1.324   1.071  0.2705  0.2950  0.3365
   26MOL   C308 8358   2.772   1.325   0.933  0.0867  0.0048 -0.0667
   26MOL   C309 8359   2.830   1.415   0.842 -0.0446  0.2071 -0.0110
   26MOL  Cl310 8360   2.776   1.408   0.676 -0.0233 -0.4197 -0.0459
   26MOL   C311 8361   2.941   1.491   0.889 -0.1338  0.6500 -0.4679
   26MOL   C312 8362   2.976   1.498   1.027 -0.1334  0.5033  0.1550
   26MOL   C313 8363   2.906   1.413   1.116  0.1610  0.1660  0.5702
   26MOL   C314 8364   2.828   1.130   1.227  0.0272  0.6575  0.6208
   26MOL   H315 8365   2.651   1.177   1.106 -0.2399  1.0895  0.0546
   26MOL   H316 8366   2.695   1.262   0.890  0.3887 -0.2490 -0.2377
   26MOL   H317 8367   2.983   1.560   0.818 -0.7655  0.5580 -0.9385
   26MOL   H318 8368   3.050   1.569   1.061  0.4510 -0.0247 -0.0042
   26MOL   H319 8369   2.923   1.416   1.222 -0.5584  1.7168  0.6717
   26MOL   H320 8370   2.768   1.062   1.287 -1.9062  1.8567  0.1008
   26MOL   H321 8371   2.885   1.082   1.147 -0.1739  0.1485  0.7885
   26MOL   H322 8372   2.889   1.191   1.294  1.7787  0.8207 -1.0886
   27MOL     C1 8373   6.003   6.036   0.709  0.0736  0.1365 -0.2992
   27MOL     C2 8374   6.011   5.903   0.782 -0.7055  0.1172 -0.8815
   27MOL     C3 8375   5.963   5.781   0.722 -0.1150 -0.5131  0.3236
   27MOL     C4 8376   5.947   5.668   0.805 -0.3440  0.3277  0.4239
   27MOL    Cl5 8377   5.868   5.524   0.744  0.1866 -0.1298 -0.2660
   27MOL     C6 8378   6.009   5.661   0.933  0.6624  0.2037  0.0056
   27MOL     C7 8379   6.060   5.774   0.987  0.0338 -0.1841  0.6675
   27MOL     C8 8380   6.054   5.891   0.916 -0.4908 -0.0314  0.5809
   27MOL     C9 8381   5.961   6.148   0.792  0.4573  0.1492  0.3753
   27MOL    H10 8382   5.932   6.022   0.627  1.2475 -0.7330 -1.2016
   27MOL    H11 8383   5.919   5.778   0.623  0.0267 -0.6215  0.2649
   27MOL    H12 8384   6.003   5.570   0.992  0.5463  1.5366  2.1154
   27MOL    H13 8385   6.102   5.773   1.086  0.2843 -0.4337  0.5603
   27MOL    H14 8386   6.086   5.972   0.979  1.0634  0.8564 -1.2758
   27MOL    H15 8387   5.862   6.132   0.833  0.7317  3.0022  2.3534
   27MOL    H16 8388   6.029   6.158   0.877  0.8347  0.4722  0.0405
   27MOL    H17 8389   6.097   6.053   0.655 -0.5648  3.1824 -0.5402
   27MOL    C18 8390   5.976   6.284   0.723  0.2681  0.2323 -0.3669
   27MOL    C19 8391   5.890   6.392   0.793  0.9601 -0.2759  0.4636
   27MOL    C20 8392   5.912   6.431   0.929  0.3122  0.3416 -0.7725
   27MOL    C21 8393   5.837   6.526   0.985 -0.2244  0.1547 -0.1198
   27MOL   Cl22 8394   5.861   6.564   1.154 -0.1789 -0.2663 -0.2690
   27MOL    C23 8395   5.730   6.588   0.920  0.2669  0.2024 -0.2184
   27MOL    C24 8396   5.703   6.550   0.786  0.3573 -1.3374 -0.0519
   27MOL    C25 8397   5.779   6.444   0.726 -0.3386  0.8144  0.4592
   27MOL    C26 8398   6.124   6.326   0.703 -0.5427  0.0381 -0.2632
   27MOL    H27 8399   5.927   6.274   0.625 -2.1455  0.5998  0.7478
   27MOL    H28 8400   5.986   6.376   0.986  1.0507  0.2745 -1.7894
   27MOL    H29 8401   5.669   6.669   0.957 -1.7158 -0.5849 -1.6196
   27MOL    H30 8402   5.627   6.596   0.725  0.2911 -2.5206 -0.8893
   27MOL    H31 8403   5.756   6.405   0.628 -0.8316 -1.8492  1.5816
   27MOL    H32 8404   6.169   6.363   0.795 -0.2961  0.3549 -0.5100
   27MOL    H33 8405   6.183   6.237   0.679 -1.6807 -1.0134  0.8031
   27MOL    C34 8406   6.166   6.435   0.589  0.2271  0.8062  0.5122
   27MOL    C35 8407   6.093   6.574   0.618  0.2326 -0.3281  0.1726
   27MOL    C36 8408   6.002   6.633   0.527 -0.0087  0.5975  0.2601
   27MOL    C37 8409   5.927   6.746   0.565  0.5541 -0.5156 -0.4185
   27MOL   Cl38 8410   5.810   6.823   0.457 -0.0386 -0.0064  0.2396
   27MOL    C39 8411   5.943   6.802   0.696  0.4311 -0.2511 -0.4073
   27MOL    C40 8412   6.036   6.748   0.782 -0.0938  0.3012  0.4933
   27MOL    C41 8413   6.113   6.633   0.740  0.5717  0.6109 -0.6231
   27MOL    C42 8414   6.327   6.450   0.586 -0.3082  0.2479  0.6053
   27MOL    H43 8415   6.128   6.400   0.493  0.2489  0.9460  0.4537
   27MOL    H44 8416   5.993   6.581   0.432 -2.3594  1.4175  0.0054
   27MOL    H45 8417   5.890   6.892   0.722 -0.5049 -0.8484 -0.2080
   27MOL    H46 8418   6.044   6.803   0.874  0.8908 -0.8900  1.1382
   27MOL    H47 8419   6.190   6.590   0.802 -2.7522 -3.0932  1.1470
   27MOL    H48 8420   6.353   6.515   0.503 -2.7206  2.3082  1.3849
   27MOL    H49 8421   6.358   6.482   0.685 -3.5892  1.2263  1.3866
   27MOL    C50 8422   6.409   6.328   0.561 -0.7841  0.0284 -0.5994
   27MOL    C51 8423   6.370   6.242   0.442  0.1891 -1.0209  1.1108
   27MOL    C52 8424   6.327   6.109   0.454 -0.3966 -0.8717  0.6446
   27MOL    C53 8425   6.295   6.028   0.347 -0.5935 -0.3965 -0.0086
   27MOL   Cl54 8426   6.233   5.873   0.381 -0.2632  0.1049  0.0109
   27MOL    C55 8427   6.303   6.085   0.218 -0.0645 -0.5863  0.2605
   27MOL    C56 8428   6.353   6.216   0.202  0.6676 -0.2495 -0.1692
   27MOL    C57 8429   6.388   6.295   0.310  0.9960 -0.0061 -0.3396
   27MOL    C58 8430   6.563   6.359   0.569  0.2677  0.4237 -0.2473
   27MOL    H59 8431   6.390   6.259   0.644 -3.8651  1.4710 -0.0335
   27MOL    H60 8432   6.306   6.077   0.555  1.6557  1.0469  1.7241
   27MOL    H61 8433   6.267   6.032   0.130 -1.7067  0.2687  0.4081
   27MOL    H62 8434   6.355   6.266   0.106  0.0360 -3.2929 -1.8306
   27MOL    H63 8435   6.427   6.392   0.284 -0.6198  0.4658 -1.0569
   27MOL    H64 8436   6.583   6.443   0.502  1.0304  0.7564  0.3792
   27MOL    H65 8437   6.581   6.392   0.671  0.2895 -3.1708  0.9684
   27MOL    C66 8438   6.664   6.239   0.562 -0.1991  0.1273  0.0405
   27MOL    C67 8439   6.670   6.170   0.427 -0.1909  0.4187 -0.3738
   27MOL    C68 8440   6.704   6.248   0.319 -0.2095 -0.1399 -0.1983
   27MOL    C69 8441   6.722   6.192   0.187  0.3282  0.3619 -0.0599
   27MOL   Cl70 8442   6.743   6.297   0.045  0.0041 -0.1259 -0.0225
   27MOL    C71 8443   6.725   6.049   0.180  0.3997  0.2616 -0.6444
   27MOL    C72 8444   6.685   5.973   0.290 -0.6340 -0.4977 -0.2622
   27MOL    C73 8445   6.651   6.031   0.411 -0.1705  0.4139 -0.4921
   27MOL    C74 8446   6.804   6.278   0.608 -0.3154 -0.3790  0.7173
   27MOL    H75 8447   6.627   6.167   0.635  2.3609 -0.6457  0.6214
   27MOL    H76 8448   6.726   6.354   0.327  1.0066 -0.4797  1.1720
   27MOL    H77 8449   6.751   6.001   0.087 -0.0311 -0.1543 -0.5543
   27MOL    H78 8450   6.665   5.868   0.271 -1.3042 -0.4139 -0.0496
   27MOL    H79 8451   6.619   5.975   0.497  0.2753  2.0425  0.7652
   27MOL    H80 8452   6.870   6.201   0.570 -2.8996 -1.7045 -1.2723
   27MOL    H81 8453   6.840   6.367   0.556  1.5671 -2.0607 -0.8688
   27MOL    C82 8454   6.832   6.281   0.758  0.2539  0.1224 -0.0093
   27MOL    C83 8455   6.810   6.154   0.832 -0.5763  0.6754 -0.0822
   27MOL    C84 8456   6.865   6.032   0.787 -0.6349  0.2067 -0.2668
   27MOL    C85 8457   6.868   5.921   0.872  0.5921 -0.7661  0.7261
   27MOL   Cl86 8458   6.953   5.785   0.812 -0.3002 -0.1652  0.2167
   27MOL    C87 8459   6.798   5.922   0.995  0.2035  0.1304 -0.2465
   27MOL    C88 8460   6.739   6.037   1.040  0.5539 -0.2641  0.4015
   27MOL    C89 8461   6.746   6.149   0.957  0.7499  0.3514 -0.4494
   27MOL    C90 8462   6.978   6.320   0.771 -0.2756  0.2100 -0.0746
   27MOL    H91 8463   6.787   6.360   0.818 -1.1126 -1.4445  1.0910
   27MOL    H92 8464   6.919   6.023   0.694  2.1782  2.7645  1.0224
   27MOL    H93 8465   6.785   5.834   1.056 -1.0576  1.3836  1.3416
   27MOL    H94 8466   6.675   6.035   1.127 -1.0092 -1.2997 -0.7207
   27MOL    H95 8467   6.696   6.232   1.005 -1.9150 -1.3097 -0.2626
   27MOL    H96 8468   7.043   6.243   0.730  2.1013  2.0224  0.1737
   27MOL    H97 8469   6.993   6.408   0.709  0.5057 -1.0822 -1.7439
   27MOL    C98 8470   7.029   6.367   0.909 -0.2810 -0.0584 -0.4189
   27MOL    C99 8471   7.148   6.282   0.949 -0.0665  0.2603 -0.1726
   27MOL   C100 8472   7.280   6.308   0.903 -0.4886 -0.3402  0.1292
   27MOL   C101 8473   7.383   6.216   0.925 -0.2828  0.7501  0.0900
   27MOL  Cl102 8474   7.539   6.228   0.859  0.1556 -0.0919 -0.2053
   27MOL   C103 8475   7.363   6.109   1.012  0.3542  0.4957  0.3359
   27MOL   C104 8476   7.235   6.080   1.062  0.1662  0.5824 -0.6508
   27MOL   C105 8477   7.131   6.164   1.030  0.5458  0.2467 -0.6248
   27MOL   C106 8478   7.068   6.514   0.919 -0.0189 -0.3393 -0.2037
   27MOL   H107 8479   6.954   6.348   0.985 -0.9681 -2.6481 -1.6861
   27MOL   H108 8480   7.304   6.392   0.838 -0.5156 -0.8592 -0.5602
   27MOL   H109 8481   7.442   6.041   1.040  0.0211 -0.3305 -0.6962
   27MOL   H110 8482   7.223   5.993   1.125  0.8255  0.2722 -0.9471
   27MOL   H111 8483   7.028   6.136   1.048  0.4850 -0.0197 -1.3872
   27MOL   H112 8484   7.127   6.532   1.008  2.1764 -0.6949 -1.5666
   27MOL   H113 8485   7.138   6.522   0.836 -1.6135 -0.8828 -1.6499
   27MOL   C114 8486   6.952   6.617   0.911 -0.0011 -0.9255 -0.0883
   27MOL   C115 8487   6.847   6.607   1.021 -0.3264 -1.0702  0.0107
   27MOL   C116 8488   6.878   6.643   1.153  0.0038 -0.5148 -0.6614
   27MOL   C117 8489   6.781   6.649   1.255  0.1951 -0.2303 -1.3287
   27MOL  Cl118 8490   6.834   6.696   1.410  0.4246 -0.0798  0.1057
   27MOL   C119 8491   6.650   6.615   1.221  0.0839  0.3143 -0.2912
   27MOL   C120 8492   6.620   6.573   1.089 -0.3305  0.3496 -0.6688
   27MOL   C121 8493   6.714   6.573   0.989  0.0990  0.3206 -0.5374
   27MOL   C122 8494   7.013   6.761   0.882  0.2088  0.4605 -0.2194
   27MOL   H123 8495   6.892   6.593   0.823 -1.5537 -0.9603  0.9619
   27MOL   H124 8496   6.983   6.658   1.172  0.1803 -1.7638 -0.6172
   27MOL   H125 8497   6.583   6.607   1.305  2.0982 -1.0887  1.2391
   27MOL   H126 8498   6.522   6.533   1.066 -1.8354  2.9469  0.8886
   27MOL   H127 8499   6.686   6.545   0.889 -1.3639  0.6993 -0.2551
   27MOL   H128 8500   7.113   6.765   0.923 -0.1979 -0.4992  0.8943
   27MOL   H129 8501   7.031   6.758   0.774 -0.5584  3.4798 -0.4840
   27MOL   C130 8502   6.938   6.895   0.916 -0.0822  0.6004  0.0777
   27MOL   C131 8503   7.033   7.012   0.913  0.0417  0.1569  0.6829
   27MOL   C132 8504   7.071   7.080   1.033  0.3245  0.4562 -0.1504
   27MOL   C133 8505   7.174   7.176   1.034  0.4441 -0.5691  0.5910
   27MOL  Cl134 8506   7.233   7.255   1.180 -0.2527  0.5175 -0.1767
   27MOL   C135 8507   7.246   7.197   0.916 -0.0526 -0.1469 -0.4464
   27MOL   C136 8508   7.205   7.143   0.792 -0.0553 -0.1452 -0.0777
   27MOL   C137 8509   7.107   7.042   0.796  0.5040 -0.1396  0.0880
   27MOL   C138 8510   6.798   6.910   0.833  0.5389 -0.1437 -0.2172
   27MOL   H139 8511   6.906   6.880   1.019 -0.6062  2.1975  0.1470
   27MOL   H140 8512   7.014   7.070   1.125 -1.2613 -0.5530 -1.2042
   27MOL   H141 8513   7.322   7.274   0.918  0.2187 -0.4237 -0.0500
   27MOL   H142 8514   7.256   7.178   0.704  0.4393 -0.5289  0.0549
   27MOL   H143 8515   7.088   6.988   0.705 -0.6446  0.9935 -0.3605
   27MOL   H144 8516   6.829   6.887   0.731  0.8853 -0.3021 -0.0782
   27MOL   H145 8517   6.729   6.827   0.851  1.0986 -0.5531  0.0771
   27MOL   C146 8518   6.724   7.045   0.839 -0.5509  0.1171  0.0387
   27MOL   C147 8519   6.637   7.052   0.716 -0.2388  0.2373 -0.3445
   27MOL   C148 8520   6.532   6.959   0.695  0.3027  0.2744 -0.0335
   27MOL   C149 8521   6.463   6.965   0.568 -0.7967  0.1854  0.7643
   27MOL  Cl150 8522   6.335   6.849   0.542 -0.1186  0.0261  0.2251
   27MOL   C151 8523   6.501   7.066   0.469 -0.1781 -0.0233  0.2179
   27MOL   C152 8524   6.597   7.158   0.497 -0.1386 -0.5358  0.3871
   27MOL   C153 8525   6.671   7.141   0.611  0.5058  0.0306 -0.3756
   27MOL   C154 8526   6.642   7.052   0.969  0.0682  0.3526 -0.1469
   27MOL   H155 8527   6.792   7.130   0.830 -2.0503  1.1140 -2.4759
   27MOL   H156 8528   6.498   6.884   0.766 -2.4011  1.0828 -0.4341
   27MOL   H157 8529   6.452   7.085   0.374  0.3026 -0.0791 -0.0384
   27MOL   H158 8530   6.621   7.227   0.417 -1.3437 -2.8334 -2.0591
   27MOL   H159 8531   6.752   7.213   0.620  0.3274  0.4039 -1.6339
   27MOL   H160 8532   6.541   7.084   0.942 -0.2941 -0.0477  0.7033
   27MOL   H161 8533   6.633   6.954   1.015 -1.9000  0.1070 -1.0054
   27MOL   C162 8534   6.698   7.142   1.080  0.5865  0.3572  0.1160
   27MOL   C163 8535   6.728   7.286   1.021 -0.0742 -0.5082 -0.0613
   27MOL   C164 8536   6.843   7.345   1.070  0.5687 -0.2507 -0.2220
   27MOL   C165 8537   6.877   7.475   1.024 -0.3743  0.3353 -0.1504
   27MOL  Cl166 8538   7.021   7.541   1.080 -0.3335 -0.2125 -0.1594
   27MOL   C167 8539   6.804   7.534   0.924  0.4741 -0.5805  0.1190
   27MOL   C168 8540   6.693   7.471   0.869  0.1266  0.6144 -0.2738
   27MOL   C169 8541   6.650   7.348   0.917  0.0945  1.2240 -1.2552
   27MOL   C170 8542   6.618   7.141   1.212  0.1621  0.0478 -0.0731
   27MOL   H171 8543   6.795   7.100   1.106 -0.4035 -2.9986 -1.2911
   27MOL   H172 8544   6.902   7.300   1.149  0.3395  0.8491  0.5938
   27MOL   H173 8545   6.832   7.634   0.891 -0.0139  0.0561  1.5954
   27MOL   H174 8546   6.640   7.519   0.788  0.3735  1.2716 -0.0494
   27MOL   H175 8547   6.563   7.305   0.869  0.2288 -0.6781  0.1363
   27MOL   H176 8548   6.633   7.044   1.259  0.4197  0.7894  1.3853
   27MOL   H177 8549   6.668   7.209   1.280 -0.0595 -0.2837  0.4176
   27MOL   C178 8550   6.470   7.175   1.215  0.0228 -0.2684  0.1974
   27MOL   C179 8551   6.383   7.062   1.167 -0.2382 -0.0523 -0.0249
   27MOL   C180 8552   6.274   7.105   1.093 -0.4157  0.4766 -0.1308
   27MOL   C181 8553   6.170   7.014   1.054 -0.6173  0.4810 -0.3847
   27MOL  Cl182 8554   6.025   7.074   0.981  0.3922  0.3893 -0.2707
   27MOL   C183 8555   6.189   6.875   1.088  0.0445 -0.0320  0.1436
   27MOL   C184 8556   6.305   6.830   1.147 -0.5817 -0.6900  0.0003
   27MOL   C185 8557   6.399   6.923   1.190  1.1151  0.1660  0.2124
   27MOL   C186 8558   6.418   7.226   1.354  0.5694  0.3696  0.3636
   27MOL   H187 8559   6.465   7.255   1.141  2.3333 -0.7622 -0.5534
   27MOL   H188 8560   6.253   7.210   1.077  0.2708  0.6520  0.0938
   27MOL   H189 8561   6.113   6.803   1.060 -1.0797  2.2857 -2.9993
   27MOL   H190 8562   6.324   6.725   1.166  3.0543 -0.0428  0.2809
   27MOL   H191 8563   6.485   6.890   1.246 -0.3497  0.7452  2.8554
   27MOL   H192 8564   6.310   7.211   1.351  0.4465  1.4845 -2.5447
   27MOL   H193 8565   6.458   7.165   1.435  2.0258 -0.3032 -0.8352
   27MOL   C194 8566   6.447   7.377   1.395  0.2573  0.3776 -0.4305
   27MOL   C195 8567   6.420   7.460   1.270 -0.5540 -0.7185  0.2579
   27MOL   C196 8568   6.292   7.482   1.220  0.0510 -0.7988 -0.2206
   27MOL   C197 8569   6.267   7.559   1.109 -0.1638 -0.7632  0.0108
   27MOL  Cl198 8570   6.099   7.588   1.079 -0.1606 -0.1628 -0.2807
   27MOL   C199 8571   6.372   7.619   1.041 -0.6098 -0.5405  0.6154
   27MOL   C200 8572   6.508   7.602   1.085 -0.0487 -0.2138  0.2314
   27MOL   C201 8573   6.529   7.518   1.201 -0.2978 -0.4154  0.0863
   27MOL   C202 8574   6.360   7.429   1.512  0.3728  0.8798 -0.0030
   27MOL   H203 8575   6.552   7.384   1.423 -0.2775 -2.2528  2.5596
   27MOL   H204 8576   6.197   7.449   1.262 -0.8206  2.8187  0.8141
   27MOL   H205 8577   6.350   7.685   0.959  1.0739 -0.7747 -0.0494
   27MOL   H206 8578   6.584   7.668   1.046 -0.0301 -1.8034 -2.5519
   27MOL   H207 8579   6.629   7.516   1.243 -0.8228  0.6730  1.4252
   27MOL   H208 8580   6.356   7.538   1.519  0.2562  0.8129  1.0387
   27MOL   H209 8581   6.257   7.401   1.492  0.3778  1.2442 -0.5344
   27MOL   C210 8582   6.397   7.368   1.658  0.2381 -0.0908 -0.1771
   27MOL   C211 8583   6.510   7.447   1.718  0.0157 -0.1697 -0.8757
   27MOL   C212 8584   6.644   7.400   1.706 -0.2217  0.2214 -0.0072
   27MOL   C213 8585   6.751   7.457   1.768 -0.0660 -0.2126  0.9949
   27MOL  Cl214 8586   6.900   7.377   1.758  0.0508  0.1542  0.0512
   27MOL   C215 8587   6.741   7.584   1.828 -0.2634  0.1886 -0.2564
   27MOL   C216 8588   6.611   7.644   1.832  0.1274  0.0353  0.3250
   27MOL   C217 8589   6.497   7.577   1.777 -0.5322 -0.1981 -0.1821
   27MOL   C218 8590   6.268   7.355   1.748  0.5742  0.6311 -0.3369
   27MOL   H219 8591   6.432   7.267   1.637  0.1694 -1.1058  4.1522
   27MOL   H220 8592   6.662   7.304   1.660 -1.1908 -0.8846  1.8734
   27MOL   H221 8593   6.830   7.635   1.862 -0.8872  1.1856 -0.1126
   27MOL   H222 8594   6.596   7.747   1.862 -1.5687 -0.2478  0.5532
   27MOL   H223 8595   6.394   7.609   1.782 -0.3632  0.1935  0.7860
   27MOL   H224 8596   6.299   7.360   1.853 -1.8485 -1.5999  0.5568
   27MOL   H225 8597   6.202   7.441   1.739 -0.5873 -0.3957 -1.9592
   27MOL   C226 8598   6.180   7.220   1.724 -0.8912  0.4129  0.7589
   27MOL   C227 8599   6.264   7.089   1.718  0.3453 -0.4353 -0.4489
   27MOL   C228 8600   6.255   6.991   1.617 -1.1587 -0.0504 -0.8377
   27MOL   C229 8601   6.347   6.879   1.617 -0.9355 -0.0483  0.1926
   27MOL  Cl230 8602   6.327   6.754   1.499 -0.2758  0.5763 -0.3503
   27MOL   C231 8603   6.444   6.872   1.713 -0.5758 -0.7293 -0.1864
   27MOL   C232 8604   6.459   6.965   1.813 -0.0974 -0.0868  0.9245
   27MOL   C233 8605   6.363   7.069   1.813  0.0349 -0.4325  0.5004
   27MOL   C234 8606   6.056   7.204   1.817  0.3178 -0.1975  0.5831
   27MOL   H235 8607   6.147   7.208   1.621 -0.5381 -2.0342  0.8997
   27MOL   H236 8608   6.175   6.995   1.544 -1.4230 -0.4398 -0.5720
   27MOL   H237 8609   6.524   6.801   1.697 -0.1302 -0.4850  0.9774
   27MOL   H238 8610   6.540   6.965   1.884  1.2635  1.0396 -0.5758
   27MOL   H239 8611   6.386   7.148   1.882 -0.9544 -0.7564  1.2111
   27MOL   H240 8612   6.026   7.099   1.809  0.9429 -0.2703 -0.9701
   27MOL   H241 8613   6.101   7.197   1.916 -1.7546 -1.6814  1.4512
   27MOL   C242 8614   5.939   7.299   1.792 -0.5672  0.1126  0.3495
   27MOL   C243 8615   5.899   7.317   1.641 -0.2778 -0.4623  0.2921
   27MOL   C244 8616   5.909   7.442   1.575 -0.0307  0.3336  0.5320
   27MOL   C245 8617   5.888   7.453   1.434  0.0821  0.4103  0.2764
   27MOL  Cl246 8618   5.896   7.604   1.349  0.0116  0.2548  0.2550
   27MOL   C247 8619   5.867   7.336   1.356  0.1334 -0.0161 -0.1167
   27MOL   C248 8620   5.859   7.212   1.424  0.3190 -0.3049  0.5122
   27MOL   C249 8621   5.878   7.202   1.561  0.1578  0.1071  0.5556
   27MOL   C250 8622   5.818   7.269   1.887 -0.1008  0.2537 -0.1746
   27MOL   H251 8623   5.965   7.401   1.821  0.8300 -0.2596  0.4623
   27MOL   H252 8624   5.923   7.532   1.634 -0.0492  0.4106  0.4188
   27MOL   H253 8625   5.831   7.340   1.254 -2.3984  2.3106  0.8128
   27MOL   H254 8626   5.838   7.124   1.365 -2.0869  0.6646 -0.1381
   27MOL   H255 8627   5.873   7.105   1.609  0.3024  0.2139  0.7921
   27MOL   H256 8628   5.796   7.166   1.856  0.8738 -0.0852  0.2625
   27MOL   H257 8629   5.845   7.251   1.991 -0.7186 -1.1507 -0.2377
   27MOL   C258 8630   5.693   7.356   1.864 -0.5960  0.2883  0.3828
   27MOL   C259 8631   5.572   7.262   1.834  0.0867  1.1576 -0.0741
   27MOL   C260 8632   5.514   7.174   1.931 -0.4458 -0.4222 -0.2208
   27MOL   C261 8633   5.403   7.094   1.893 -0.2374  0.9513  0.4057
   27MOL  Cl262 8634   5.347   6.965   2.005  0.1484 -0.2318 -0.4201
   27MOL   C263 8635   5.345   7.113   1.767 -0.1497 -0.1826  0.3570
   27MOL   C264 8636   5.415   7.190   1.672 -0.6574 -0.4773  0.5562
   27MOL   C265 8637   5.529   7.259   1.707  0.5183 -1.1840  0.0016
   27MOL   C266 8638   5.675   7.430   1.999 -0.3684 -0.0060 -0.4328
   27MOL   H267 8639   5.703   7.419   1.776 -2.8558 -0.5284 -0.5154
   27MOL   H268 8640   5.551   7.154   2.030 -1.2403  0.2164  0.2071
   27MOL   H269 8641   5.257   7.066   1.726  0.7989 -0.7776 -1.0648
   27MOL   H270 8642   5.377   7.181   1.571  0.4275 -0.8980  0.1806
   27MOL   H271 8643   5.581   7.304   1.624  1.0475  0.8207  1.3991
   27MOL   H272 8644   5.566   7.433   2.006 -0.5196 -2.6719 -1.3245
   27MOL   H273 8645   5.705   7.373   2.087  1.2407 -0.9838 -1.5899
   27MOL   C274 8646   5.729   7.578   2.004  0.0904  0.0298  0.1610
   27MOL   C275 8647   5.702   7.670   1.891  0.3520 -0.1579  0.6165
   27MOL   C276 8648   5.811   7.728   1.813 -0.5858  0.5493  0.2604
   27MOL   C277 8649   5.776   7.812   1.702  0.3767  0.2222 -0.3891
   27MOL  Cl278 8650   5.894   7.880   1.597 -0.0016 -0.0714 -0.4298
   27MOL   C279 8651   5.640   7.843   1.674  0.5187  0.1761 -0.1127
   27MOL   C280 8652   5.538   7.795   1.757  0.2185 -0.1955  0.1057
   27MOL   C281 8653   5.568   7.701   1.858  0.4145 -0.1406  0.4004
   27MOL   C282 8654   5.704   7.645   2.147 -0.7096  0.1783  0.0317
   27MOL   H283 8655   5.836   7.556   1.997 -0.0461 -0.4535 -0.4275
   27MOL   H284 8656   5.915   7.704   1.830 -0.2490  3.3284  2.5651
   27MOL   H285 8657   5.614   7.912   1.596  0.4411 -0.6291 -0.8071
   27MOL   H286 8658   5.436   7.826   1.740  0.0638  0.2069  1.7354
   27MOL   H287 8659   5.494   7.655   1.921 -1.9880  1.4539 -1.1356
   27MOL   H288 8660   5.598   7.655   2.169 -0.6205  0.2517  0.4446
   27MOL   H289 8661   5.737   7.571   2.221  0.4577  1.0675  0.4097
   27MOL   C290 8662   5.756   7.795   2.164  0.4963 -0.5911  0.0254
   27MOL   C291 8663   5.651   7.900   2.122  0.2113  0.0469 -0.1799
   27MOL   C292 8664   5.521   7.904   2.174  0.4787 -0.4759 -0.0219
   27MOL   C293 8665   5.425   7.988   2.118 -0.1311 -0.2620 -0.0530
   27MOL  Cl294 8666   5.265   8.001   2.190 -0.0111  0.5338  0.2042
   27MOL   C295 8667   5.465   8.084   2.024  0.1991 -0.7588 -0.4481
   27MOL   C296 8668   5.593   8.085   1.974  0.2556  0.4148  0.5410
   27MOL   C297 8669   5.689   7.993   2.022  0.0129 -0.7513  0.8787
   27MOL   C298 8670   5.807   7.818   2.308  0.0569  0.1007 -0.2251
   27MOL   H299 8671   5.833   7.798   2.087 -0.0321  0.3745 -0.4642
   27MOL   H300 8672   5.493   7.829   2.247  0.6874  2.1212  2.8436
   27MOL   H301 8673   5.395   8.156   1.982 -1.0906 -2.1627 -0.7587
   27MOL   H302 8674   5.629   8.147   1.894 -1.3035 -1.5805 -1.7682
   27MOL   H303 8675   5.781   7.980   1.967 -1.5186  0.1638 -2.0175
   27MOL   H304 8676   5.737   7.773   2.378 -0.1938 -0.0671 -0.5831
   27MOL   H305 8677   5.895   7.754   2.318 -0.0043 -0.1347 -1.1103
   27MOL   C306 8678   5.844   7.960   2.351 -0.2560  0.2640  0.0510
   27MOL   C307 8679   5.832   7.977   2.503  0.0453 -0.4505 -0.1266
   27MOL   C308 8680   5.714   8.031   2.560 -0.3030  1.2157  0.0747
   27MOL   C309 8681   5.712   8.061   2.695 -0.3111  0.2093 -0.2732
   27MOL  Cl310 8682   5.576   8.131   2.763 -0.3598  0.2589  0.5450
   27MOL   C311 8683   5.831   8.041   2.773 -0.3696 -0.1761  0.0291
   27MOL   C312 8684   5.948   7.987   2.712 -0.1493 -0.1419 -0.6957
   27MOL   C313 8685   5.944   7.944   2.577  0.2316  0.1273 -0.4396
   27MOL   C314 8686   5.965   8.017   2.284 -0.0554 -0.5209 -0.6176
   27MOL   H315 8687   5.759   8.022   2.322 -1.5927 -0.8720  1.4525
   27MOL   H316 8688   5.638   8.055   2.488  0.0275 -0.3695 -0.8208
   27MOL   H317 8689   5.840   8.065   2.878 -0.2544 -0.7900  0.1628
   27MOL   H318 8690   6.040   7.985   2.768 -0.5729 -0.1296 -0.0012
   27MOL   H319 8691   6.023   7.886   2.532 -0.3118 -2.6183  2.0508
   27MOL   H320 8692   6.048   7.947   2.288  1.7281  1.6148  0.6118
   27MOL   H321 8693   5.957   8.039   2.177 -0.3725 -0.6790 -0.6261
   27MOL   H322 8694   5.979   8.111   2.338 -0.3490 -1.0014  0.3039
   28MOL     C1 8695   2.607   2.063   5.082 -0.7728  0.2255  0.7463
   28MOL     C2 8696   2.488   1.982   5.135  0.2326 -0.3747 -0.1276
   28MOL     C3 8697   2.406   1.915   5.042  0.3529  0.0322 -0.1506
   28MOL     C4 8698   2.296   1.841   5.088  0.0617 -0.0036 -0.2656
   28MOL    Cl5 8699   2.197   1.738   4.981  0.2019 -0.1301 -0.3422
   28MOL     C6 8700   2.259   1.844   5.223 -0.2008  0.3453 -0.3373
   28MOL     C7 8701   2.328   1.924   5.314 -0.2012 -0.3598  0.8755
   28MOL     C8 8702   2.444   1.985   5.272 -0.6211  0.1827  0.1252
   28MOL     C9 8703   2.728   1.970   5.032 -0.3225  0.0478  0.0409
   28MOL    H10 8704   2.630   2.138   5.157  0.6079  0.0825  0.4915
   28MOL    H11 8705   2.442   1.907   4.940  2.3105 -3.4398  0.7427
   28MOL    H12 8706   2.182   1.781   5.265  0.2530 -0.4756 -0.7167
   28MOL    H13 8707   2.305   1.916   5.419 -2.3508 -0.4069  0.4437
   28MOL    H14 8708   2.506   2.045   5.337  0.6388  0.1359 -0.9982
   28MOL    H15 8709   2.770   1.910   5.113 -1.1212  0.8016  1.0281
   28MOL    H16 8710   2.699   1.916   4.941 -0.0623  2.6313 -1.6226
   28MOL    H17 8711   2.566   2.116   4.996  1.5270  0.2309 -0.3883
   28MOL    C18 8712   2.843   2.071   4.996 -0.5396  0.6647 -0.3955
   28MOL    C19 8713   2.884   2.177   5.101 -0.6618  0.6646  0.1245
   28MOL    C20 8714   2.944   2.142   5.225  0.1486 -0.1382 -0.4327
   28MOL    C21 8715   2.984   2.242   5.319  0.3470  0.4926  0.6632
   28MOL   Cl22 8716   3.065   2.190   5.465 -0.0134  0.0965  0.0911
   28MOL    C23 8717   2.961   2.378   5.285 -0.5397  0.1493  0.2255
   28MOL    C24 8718   2.908   2.419   5.163 -0.0048 -0.9242  1.2000
   28MOL    C25 8719   2.865   2.315   5.078  0.0537  1.5947  0.0655
   28MOL    C26 8720   2.964   1.989   4.954  0.0230 -0.2387  0.1774
   28MOL    H27 8721   2.818   2.132   4.909 -0.0796  1.5455  0.0750
   28MOL    H28 8722   2.948   2.039   5.258  0.5222 -0.2320 -0.7647
   28MOL    H29 8723   2.982   2.455   5.357 -0.8609  0.0799  0.3931
   28MOL    H30 8724   2.896   2.524   5.142 -0.3067 -1.0860  0.5475
   28MOL    H31 8725   2.807   2.334   4.989 -2.0850 -0.3651  1.0087
   28MOL    H32 8726   3.043   2.061   4.933 -1.1247  1.3699  1.2095
   28MOL    H33 8727   2.989   1.932   5.044  0.8132 -0.3607 -0.1170
   28MOL    C34 8728   2.954   1.890   4.836 -0.0028 -0.8002  0.4932
   28MOL    C35 8729   2.893   1.951   4.708  0.6540 -0.6740 -0.2231
   28MOL    C36 8730   2.791   1.878   4.644 -0.4017 -0.4107  0.4815
   28MOL    C37 8731   2.722   1.937   4.536  0.7318 -0.3070  0.4070
   28MOL   Cl38 8732   2.606   1.840   4.442  0.0440  0.1504  0.2258
   28MOL    C39 8733   2.751   2.070   4.504  0.3766  1.1731  0.0924
   28MOL    C40 8734   2.854   2.147   4.569 -0.5295 -0.8191  0.4135
   28MOL    C41 8735   2.933   2.083   4.669  0.2917  0.5809 -0.1144
   28MOL    C42 8736   3.088   1.811   4.805  0.5941  0.2183  0.6070
   28MOL    H43 8737   2.885   1.815   4.874 -0.8380  0.8513  2.3116
   28MOL    H44 8738   2.769   1.778   4.677 -0.1589 -0.5602  0.1907
   28MOL    H45 8739   2.703   2.120   4.421  0.4829  0.9377 -0.1111
   28MOL    H46 8740   2.856   2.253   4.547  0.9029 -0.6584  1.2320
   28MOL    H47 8741   3.000   2.145   4.726 -0.2284  1.7297 -0.7348
   28MOL    H48 8742   3.164   1.871   4.755 -0.9137  0.0229 -1.9939
   28MOL    H49 8743   3.132   1.778   4.900 -0.5085  0.1679  1.1131
   28MOL    C50 8744   3.075   1.700   4.696 -0.0110  0.1070  0.2702
   28MOL    C51 8745   3.215   1.661   4.657 -0.1070  0.4628  0.0486
   28MOL    C52 8746   3.300   1.597   4.745 -0.3363  0.2090  0.1463
   28MOL    C53 8747   3.424   1.550   4.702 -0.6711  0.5583 -0.1535
   28MOL   Cl54 8748   3.512   1.451   4.814 -0.1340 -0.1523  0.0599
   28MOL    C55 8749   3.467   1.569   4.569 -0.4344 -0.2695 -1.0658
   28MOL    C56 8750   3.381   1.635   4.480 -0.1510 -0.3832  0.5035
   28MOL    C57 8751   3.256   1.673   4.520  0.4140  0.2748 -0.8293
   28MOL    C58 8752   2.999   1.580   4.756  0.1479  0.5289 -0.3066
   28MOL    H59 8753   3.024   1.733   4.606  0.0992 -1.4112 -0.3619
   28MOL    H60 8754   3.268   1.579   4.847 -0.9335 -0.3697 -0.1427
   28MOL    H61 8755   3.565   1.533   4.539  0.6159  1.0788  0.6477
   28MOL    H62 8756   3.406   1.639   4.375 -1.8897  0.1968  0.0944
   28MOL    H63 8757   3.187   1.705   4.443  1.2107 -1.6081 -2.4009
   28MOL    H64 8758   3.056   1.540   4.840 -1.0335 -1.6387 -0.5105
   28MOL    H65 8759   2.904   1.614   4.797  0.0677  0.1614 -0.1857
   28MOL    C66 8760   2.994   1.447   4.672 -0.3602 -0.3246 -0.4162
   28MOL    C67 8761   2.953   1.331   4.756  0.0206  0.3594 -0.3096
   28MOL    C68 8762   3.028   1.206   4.750 -0.2042 -0.2937  0.3882
   28MOL    C69 8763   2.988   1.089   4.823 -0.3309 -0.0021  0.3880
   28MOL   Cl70 8764   3.078   0.943   4.805  0.3913  0.1045 -0.2454
   28MOL    C71 8765   2.875   1.088   4.904 -0.2758 -0.3830 -0.9329
   28MOL    C72 8766   2.801   1.210   4.909  0.4944 -0.3703  0.4274
   28MOL    C73 8767   2.836   1.327   4.836 -0.0038  0.4369 -0.1673
   28MOL    C74 8768   2.887   1.463   4.561 -0.1998 -0.1899  0.0665
   28MOL    H75 8769   3.079   1.433   4.605  1.5301 -0.0026  1.8729
   28MOL    H76 8770   3.115   1.194   4.687 -0.0385 -0.2728  0.6121
   28MOL    H77 8771   2.843   0.995   4.949  0.2911  0.1254  0.5668
   28MOL    H78 8772   2.706   1.215   4.960  0.9934 -2.8084  1.6762
   28MOL    H79 8773   2.765   1.408   4.827 -0.7370 -0.0325  1.2265
   28MOL    H80 8774   2.789   1.469   4.609 -0.1573  0.8774  0.0167
   28MOL    H81 8775   2.895   1.555   4.504 -3.3027 -0.0285 -0.2250
   28MOL    C82 8776   2.880   1.366   4.446 -0.7781  0.3133 -0.1383
   28MOL    C83 8777   2.784   1.254   4.473 -0.2406 -0.4809  0.8505
   28MOL    C84 8778   2.644   1.274   4.473 -0.5022  0.3691 -0.9779
   28MOL    C85 8779   2.554   1.169   4.472  0.5777 -1.1483 -0.1152
   28MOL   Cl86 8780   2.386   1.209   4.453 -0.3118 -0.0107  0.0463
   28MOL    C87 8781   2.596   1.034   4.481  0.3725 -0.6587  0.1640
   28MOL    C88 8782   2.732   1.012   4.496 -0.4805 -0.2342 -0.7191
   28MOL    C89 8783   2.825   1.118   4.484 -0.4476  0.4789  0.1984
   28MOL    C90 8784   2.834   1.428   4.316  0.0632  0.0482 -0.4885
   28MOL    H91 8785   2.977   1.324   4.420 -0.6394  0.6051 -0.0869
   28MOL    H92 8786   2.603   1.373   4.467  2.6096  1.7209 -0.9973
   28MOL    H93 8787   2.521   0.956   4.475  0.6160 -0.8353 -0.6329
   28MOL    H94 8788   2.769   0.910   4.492  0.5806  0.0668  1.0599
   28MOL    H95 8789   2.933   1.112   4.480 -0.3935  2.1737 -1.2526
   28MOL    H96 8790   2.791   1.352   4.250 -0.3442 -2.2564  2.3056
   28MOL    H97 8791   2.764   1.511   4.324 -0.5199 -0.2943 -1.9122
   28MOL    C98 8792   2.941   1.500   4.221 -0.0249  0.8928  0.2145
   28MOL    C99 8793   3.050   1.405   4.169  0.0403 -0.7063 -0.9959
   28MOL   C100 8794   3.182   1.440   4.195 -0.3439  0.4952  1.0059
   28MOL   C101 8795   3.285   1.350   4.165  0.5357  0.6903  0.0531
   28MOL  Cl102 8796   3.446   1.389   4.221 -0.4399 -0.1746 -0.0076
   28MOL   C103 8797   3.260   1.227   4.100 -0.4530 -0.0891  0.1268
   28MOL   C104 8798   3.118   1.196   4.069 -0.2621  0.5075 -0.3057
   28MOL   C105 8799   3.020   1.284   4.111  0.0011  1.2195 -0.4800
   28MOL   C106 8800   2.868   1.558   4.098  0.5182  0.5868  0.0381
   28MOL   H107 8801   2.981   1.582   4.280 -1.3034 -0.7623  3.5456
   28MOL   H108 8802   3.202   1.528   4.256  1.8838  1.7589 -1.4461
   28MOL   H109 8803   3.333   1.149   4.083 -0.0037  0.3126  0.2143
   28MOL   H110 8804   3.095   1.106   4.013  1.0233  0.0975 -0.1762
   28MOL   H111 8805   2.919   1.250   4.092  0.2189 -0.7052  1.5992
   28MOL   H112 8806   2.944   1.566   4.020  2.3523  1.0558  1.8307
   28MOL   H113 8807   2.803   1.475   4.071 -1.7727  2.0529  0.8550
   28MOL   C114 8808   2.798   1.693   4.096  0.7749  0.4271 -0.1245
   28MOL   C115 8809   2.883   1.813   4.131 -0.0922 -0.1504  0.0370
   28MOL   C116 8810   3.030   1.809   4.125 -0.1879 -0.0968 -0.2127
   28MOL   C117 8811   3.100   1.924   4.157 -0.2081 -0.5314 -0.1206
   28MOL  Cl118 8812   3.273   1.921   4.156  0.1197 -0.4267  0.4427
   28MOL   C119 8813   3.032   2.037   4.196  0.1607 -0.1023  0.1081
   28MOL   C120 8814   2.892   2.046   4.203 -0.5065 -0.1520 -0.4016
   28MOL   C121 8815   2.811   1.929   4.173  0.7190  0.4598  0.7368
   28MOL   C122 8816   2.721   1.719   3.964  0.2437 -0.1057  0.1964
   28MOL   H123 8817   2.725   1.696   4.176  0.0005 -0.8169 -0.7705
   28MOL   H124 8818   3.086   1.727   4.082 -0.1329  0.2668 -0.8308
   28MOL   H125 8819   3.088   2.129   4.208 -1.6739  0.9401  1.0755
   28MOL   H126 8820   2.847   2.141   4.224 -0.7462 -0.9690  3.1520
   28MOL   H127 8821   2.703   1.936   4.181  0.8348 -0.0243  3.1053
   28MOL   H128 8822   2.677   1.819   3.965  1.0558  0.2533 -0.1993
   28MOL   H129 8823   2.793   1.716   3.882  1.0362 -0.4705  0.9001
   28MOL   C130 8824   2.608   1.622   3.950  0.9881 -1.5363  0.1800
   28MOL   C131 8825   2.494   1.623   4.056 -0.1255 -0.6766  0.1915
   28MOL   C132 8826   2.429   1.748   4.075 -0.4993  0.2934 -0.4250
   28MOL   C133 8827   2.331   1.753   4.172  0.0228  0.0814  0.6657
   28MOL  Cl134 8828   2.257   1.904   4.198 -0.1070 -0.0769  0.3576
   28MOL   C135 8829   2.283   1.647   4.245 -0.4904  0.5877 -0.0049
   28MOL   C136 8830   2.346   1.526   4.223 -0.8890  0.0384  0.0489
   28MOL   C137 8831   2.447   1.509   4.125  0.0463  0.0660 -0.2007
   28MOL   C138 8832   2.546   1.631   3.809  0.1538 -0.0912 -0.5173
   28MOL   H139 8833   2.654   1.523   3.945  3.3323 -0.4255 -1.0231
   28MOL   H140 8834   2.466   1.834   4.021  1.9738 -0.3367  0.2010
   28MOL   H141 8835   2.199   1.658   4.313 -1.8180  1.7177 -1.7771
   28MOL   H142 8836   2.323   1.434   4.274 -1.7914 -1.4707 -2.9558
   28MOL   H143 8837   2.485   1.411   4.099 -0.7965 -0.5896  0.9815
   28MOL   H144 8838   2.477   1.546   3.805  0.4349 -0.2659 -1.7364
   28MOL   H145 8839   2.495   1.727   3.805  0.5003  0.1688  0.8714
   28MOL   C146 8840   2.637   1.611   3.688 -0.0152 -0.3525 -0.3910
   28MOL   C147 8841   2.719   1.483   3.707 -0.1061  0.3352 -0.0742
   28MOL   C148 8842   2.664   1.351   3.709 -0.7250  0.0455  0.1747
   28MOL   C149 8843   2.750   1.236   3.714 -0.3584 -0.1104  0.1626
   28MOL  Cl150 8844   2.668   1.085   3.707  0.0446 -0.4986  0.0803
   28MOL   C151 8845   2.890   1.244   3.724 -0.3413 -0.3164 -0.6503
   28MOL   C152 8846   2.944   1.377   3.722  0.2635 -0.1586 -0.5310
   28MOL   C153 8847   2.864   1.493   3.718 -0.4940  0.8084 -0.3788
   28MOL   C154 8848   2.554   1.619   3.559  0.0658 -0.0629  1.2671
   28MOL   H155 8849   2.710   1.692   3.693 -1.0025  0.6180 -1.4027
   28MOL   H156 8850   2.560   1.338   3.684 -0.0124 -2.2505 -1.8048
   28MOL   H157 8851   2.949   1.153   3.721  2.4273  1.2987  1.9212
   28MOL   H158 8852   3.051   1.383   3.726  0.1069  1.5950  2.6367
   28MOL   H159 8853   2.910   1.590   3.707 -1.4748  1.2927 -0.2839
   28MOL   H160 8854   2.630   1.608   3.481 -0.3097 -1.5207  1.0881
   28MOL   H161 8855   2.498   1.528   3.542  0.8811 -0.4300  0.4887
   28MOL   C162 8856   2.482   1.749   3.528  0.8431 -0.0743 -0.3080
   28MOL   C163 8857   2.578   1.873   3.538 -0.2691  0.2163  0.6475
   28MOL   C164 8858   2.571   1.954   3.656  0.2019  0.1833  0.4287
   28MOL   C165 8859   2.662   2.056   3.672  0.4462  0.1093 -0.5765
   28MOL  Cl166 8860   2.684   2.137   3.823 -0.5476  0.1575 -0.3225
   28MOL   C167 8861   2.756   2.082   3.567  0.1828 -0.2136 -0.2789
   28MOL   C168 8862   2.761   2.009   3.446  0.8800  0.1522  0.8250
   28MOL   C169 8863   2.668   1.903   3.428 -0.0012  0.4336  0.6842
   28MOL   C170 8864   2.408   1.744   3.386 -0.6508  0.4078 -0.4540
   28MOL   H171 8865   2.403   1.751   3.603 -0.5047  2.8053 -1.7226
   28MOL   H172 8866   2.495   1.930   3.729  0.6750  0.5408  1.0463
   28MOL   H173 8867   2.825   2.165   3.574 -2.4742  2.1811 -1.3057
   28MOL   H174 8868   2.835   2.026   3.369  0.1529 -0.9225 -0.1412
   28MOL   H175 8869   2.679   1.847   3.337 -0.9036  0.3837  0.5979
   28MOL   H176 8870   2.477   1.704   3.311 -1.1367  0.5017 -0.9557
   28MOL   H177 8871   2.326   1.673   3.396  0.5118 -0.5866  2.5105
   28MOL   C178 8872   2.356   1.878   3.336 -0.0345  0.0923  0.1897
   28MOL   C179 8873   2.384   1.893   3.181  0.3652 -0.3704  0.1300
   28MOL   C180 8874   2.333   1.792   3.094  0.1065 -0.1043  0.5467
   28MOL   C181 8875   2.362   1.796   2.957 -0.0463  0.5803  0.3419
   28MOL  Cl182 8876   2.285   1.672   2.857  0.2483 -0.3247  0.2917
   28MOL   C183 8877   2.450   1.892   2.910  0.0865  0.3358 -0.2974
   28MOL   C184 8878   2.502   1.990   2.995 -1.0212  0.6550 -0.5431
   28MOL   C185 8879   2.474   1.987   3.134 -0.9921 -0.4051 -0.1790
   28MOL   C186 8880   2.202   1.894   3.365 -0.1319  0.9258  0.3475
   28MOL   H187 8881   2.401   1.960   3.392  1.9143 -0.9837  0.2496
   28MOL   H188 8882   2.265   1.715   3.128 -0.7989  0.3116 -0.2936
   28MOL   H189 8883   2.471   1.892   2.804 -1.5633  2.4528 -0.6575
   28MOL   H190 8884   2.565   2.060   2.943 -1.0219  0.0736 -1.3191
   28MOL   H191 8885   2.518   2.055   3.206  0.9559 -1.6635 -0.1331
   28MOL   H192 8886   2.161   1.979   3.311 -1.4427 -0.4861 -0.9253
   28MOL   H193 8887   2.155   1.802   3.328  1.5810  0.4472 -0.7201
   28MOL   C194 8888   2.169   1.914   3.518 -0.1479  0.1026  0.4175
   28MOL   C195 8889   2.223   2.045   3.580  0.4476 -0.3136 -0.3201
   28MOL   C196 8890   2.228   2.159   3.498  0.6137 -0.5538 -0.4685
   28MOL   C197 8891   2.296   2.271   3.549  0.3074 -0.3928 -0.9055
   28MOL  Cl198 8892   2.296   2.416   3.457  0.3498 -0.2082  0.3512
   28MOL   C199 8893   2.356   2.272   3.674 -0.0751  0.4532 -0.3427
   28MOL   C200 8894   2.329   2.163   3.764  0.4413  0.4963  0.4241
   28MOL   C201 8895   2.279   2.043   3.710 -0.3334 -0.1101 -0.6176
   28MOL   C202 8896   2.016   1.913   3.547  0.2040  0.3044  0.4754
   28MOL   H203 8897   2.221   1.837   3.574  1.1327  2.2184  2.1968
   28MOL   H204 8898   2.179   2.165   3.402 -2.7124 -0.1304  1.1774
   28MOL   H205 8899   2.406   2.355   3.723  1.0258  0.3743 -1.3201
   28MOL   H206 8900   2.365   2.168   3.865  1.1308  1.6261  0.1307
   28MOL   H207 8901   2.262   1.961   3.779 -1.7921  1.6441  1.1772
   28MOL   H208 8902   2.000   1.937   3.652 -3.5846  2.0266 -0.4419
   28MOL   H209 8903   1.975   1.989   3.482  2.6440  0.2321 -1.2396
   28MOL   C210 8904   1.943   1.780   3.513  0.0134 -0.5809  0.0455
   28MOL   C211 8905   2.002   1.653   3.579  0.2129  0.0789  0.2714
   28MOL   C212 8906   2.048   1.660   3.715  0.2054  0.0196 -0.2146
   28MOL   C213 8907   2.120   1.550   3.771 -0.1681  0.1108  0.7030
   28MOL  Cl214 8908   2.185   1.564   3.929  0.5710  0.2903 -0.1403
   28MOL   C215 8909   2.138   1.434   3.698 -0.6553  0.0031 -0.5664
   28MOL   C216 8910   2.078   1.419   3.568 -1.4137  0.0989  0.3877
   28MOL   C217 8911   2.022   1.533   3.502  0.8507 -0.8173  0.8318
   28MOL   C218 8912   1.791   1.799   3.550  0.0299 -0.4905  0.0117
   28MOL   H219 8913   1.947   1.749   3.409  0.3244 -0.3984  0.0035
   28MOL   H220 8914   2.045   1.744   3.782 -1.1402  0.8682 -1.3095
   28MOL   H221 8915   2.181   1.344   3.740  1.1367  0.7613 -0.7682
   28MOL   H222 8916   2.083   1.325   3.515  1.5427  0.6287 -0.3516
   28MOL   H223 8917   1.990   1.526   3.399  3.6394  0.3132 -0.1449
   28MOL   H224 8918   1.742   1.715   3.599  3.0694 -2.9703 -0.9952
   28MOL   H225 8919   1.781   1.868   3.634 -0.1053 -0.9487  0.3720
   28MOL   C226 8920   1.698   1.850   3.435 -0.2545 -0.4376 -0.0215
   28MOL   C227 8921   1.680   1.753   3.320 -0.1495 -0.5068 -0.0491
   28MOL   C228 8922   1.685   1.615   3.340 -0.3776 -0.0502  0.5466
   28MOL   C229 8923   1.675   1.537   3.224  0.0288 -0.0329  0.1881
   28MOL  Cl230 8924   1.673   1.365   3.236  0.2921 -0.2789  0.2561
   28MOL   C231 8925   1.653   1.587   3.098  0.2845 -1.1238  0.1097
   28MOL   C232 8926   1.649   1.727   3.079  0.4020 -0.3033 -0.4707
   28MOL   C233 8927   1.658   1.804   3.193  0.1213  0.0239  0.0757
   28MOL   C234 8928   1.560   1.908   3.477  0.0560  0.1100 -0.3687
   28MOL   H235 8929   1.755   1.929   3.386  1.7124  0.0342  2.9109
   28MOL   H236 8930   1.699   1.568   3.437 -0.9722  1.8937  1.6011
   28MOL   H237 8931   1.637   1.522   3.012  0.2851 -0.2766 -0.5395
   28MOL   H238 8932   1.648   1.765   2.978  1.3286 -0.5525 -0.5733
   28MOL   H239 8933   1.650   1.912   3.185 -0.2983  0.0129  0.3759
   28MOL   H240 8934   1.492   1.898   3.392  0.7202  3.1386 -1.3084
   28MOL   H241 8935   1.517   1.842   3.552 -0.0696  0.2311 -0.3333
   28MOL   C242 8936   1.570   2.051   3.526  0.7851 -0.1012  0.3484
   28MOL   C243 8937   1.629   2.150   3.430 -1.0463 -0.5310 -0.5946
   28MOL   C244 8938   1.565   2.188   3.309 -0.8480 -0.1895 -0.6501
   28MOL   C245 8939   1.623   2.282   3.229  0.2164 -0.8117  0.3183
   28MOL  Cl246 8940   1.536   2.329   3.084 -0.1644  0.3302 -0.0124
   28MOL   C247 8941   1.744   2.349   3.260  0.9465  0.0659  0.0490
   28MOL   C248 8942   1.810   2.306   3.369  0.7580  0.2603 -1.0456
   28MOL   C249 8943   1.757   2.209   3.457  0.7059  0.1165  0.1932
   28MOL   C250 8944   1.433   2.090   3.586  0.4577  0.3117 -0.3199
   28MOL   H251 8945   1.639   2.047   3.611  0.5621 -1.5469  0.4730
   28MOL   H252 8946   1.476   2.136   3.277 -1.6222  0.1112  0.9745
   28MOL   H253 8947   1.781   2.433   3.204 -2.4414  1.5108 -0.1525
   28MOL   H254 8948   1.910   2.347   3.380  0.4741  0.3642  1.5320
   28MOL   H255 8949   1.815   2.187   3.545  1.8405 -0.2545 -0.6422
   28MOL   H256 8950   1.385   2.173   3.533  0.3265  0.3873 -0.0836
   28MOL   H257 8951   1.362   2.008   3.574  0.5277 -0.1090  1.9318
   28MOL   C258 8952   1.436   2.115   3.738  0.2668 -0.1287 -0.0478
   28MOL   C259 8953   1.452   1.987   3.817  0.6873  0.4851 -0.1090
   28MOL   C260 8954   1.336   1.921   3.854  0.4962 -1.2708 -0.3477
   28MOL   C261 8955   1.339   1.802   3.924 -0.2933  0.9240  0.7147
   28MOL  Cl262 8956   1.195   1.732   3.991  0.5297 -0.0147  0.2764
   28MOL   C263 8957   1.468   1.745   3.951  0.6411 -0.8662 -0.2138
   28MOL   C264 8958   1.585   1.806   3.909 -0.0078 -0.1630 -0.0957
   28MOL   C265 8959   1.585   1.924   3.838 -0.3817  0.1813 -0.3953
   28MOL   C266 8960   1.533   2.228   3.786  0.1584  0.4157  0.1770
   28MOL   H267 8961   1.333   2.149   3.750  0.5056  0.2154  1.0297
   28MOL   H268 8962   1.236   1.961   3.842  1.1193  1.2969  2.5337
   28MOL   H269 8963   1.474   1.658   4.014  1.1119 -0.3718  0.4311
   28MOL   H270 8964   1.681   1.758   3.923  0.6196  1.4714  1.4890
   28MOL   H271 8965   1.675   1.974   3.804 -0.5284  0.5640 -0.2296
   28MOL   H272 8966   1.510   2.260   3.888  1.4193 -1.2827  1.0096
   28MOL   H273 8967   1.634   2.190   3.795 -0.2566 -0.6273  0.4685
   28MOL   C274 8968   1.528   2.353   3.693 -0.1307  0.0914 -0.8324
   28MOL   C275 8969   1.389   2.420   3.693  0.0381 -0.0277 -0.0588
   28MOL   C276 8970   1.344   2.481   3.817 -0.4364 -0.2122 -0.3281
   28MOL   C277 8971   1.222   2.554   3.819  0.3527  0.0466 -0.2483
   28MOL  Cl278 8972   1.167   2.614   3.972  0.2534  0.3090  0.0407
   28MOL   C279 8973   1.147   2.572   3.699 -0.0476  0.1173  0.1413
   28MOL   C280 8974   1.193   2.510   3.577  0.4171  0.8741  0.6357
   28MOL   C281 8975   1.308   2.428   3.574  0.0561 -0.2310  0.0275
   28MOL   C282 8976   1.647   2.433   3.738  0.1950 -0.4016  0.0891
   28MOL   H283 8977   1.532   2.326   3.587  1.0600  1.0370 -1.0424
   28MOL   H284 8978   1.395   2.473   3.912  0.9889  1.3325 -0.9375
   28MOL   H285 8979   1.054   2.626   3.698  0.5914  1.2324 -0.1562
   28MOL   H286 8980   1.145   2.534   3.484 -1.1405 -0.2890  1.1267
   28MOL   H287 8981   1.337   2.391   3.477 -0.6728 -0.6206 -0.0436
   28MOL   H288 8982   1.647   2.470   3.841 -0.3238  1.4973 -0.5793
   28MOL   H289 8983   1.738   2.374   3.736 -0.4505 -1.5817  2.8492
   28MOL   C290 8984   1.681   2.542   3.636 -1.0333 -0.6593 -0.1764
   28MOL   C291 8985   1.589   2.658   3.641  0.0929 -0.3080 -0.2571
   28MOL   C292 8986   1.506   2.686   3.537 -0.4512 -0.5815  0.6281
   28MOL   C293 8987   1.413   2.791   3.552 -0.6096  0.2707  0.0968
   28MOL  Cl294 8988   1.288   2.819   3.427 -0.3784 -0.0424  0.2398
   28MOL   C295 8989   1.411   2.870   3.665 -0.5580  0.2518  0.3759
   28MOL   C296 8990   1.496   2.844   3.773 -0.5198  0.7668 -0.4246
   28MOL   C297 8991   1.591   2.740   3.761  0.2134 -0.0659  0.2792
   28MOL   C298 8992   1.835   2.583   3.651 -0.1343 -0.4278 -0.5386
   28MOL   H299 8993   1.669   2.499   3.537 -1.0343 -1.8962  0.3592
   28MOL   H300 8994   1.501   2.619   3.452  0.4667  1.6678 -1.2366
   28MOL   H301 8995   1.334   2.945   3.669  1.0176  1.9900 -1.1984
   28MOL   H302 8996   1.507   2.906   3.860  2.1273 -0.7344  0.3739
   28MOL   H303 8997   1.653   2.719   3.847  0.2446  1.4581  0.6410
   28MOL   H304 8998   1.853   2.607   3.756 -0.0033 -0.8756 -0.4583
   28MOL   H305 8999   1.896   2.493   3.638  0.8801  0.0426  0.8345
   28MOL   C306 9000   1.870   2.697   3.553  0.2807 -0.1493  0.8318
   28MOL   C307 9001   1.995   2.761   3.606  0.3971  0.0127  0.6063
   28MOL   C308 9002   2.115   2.690   3.622 -0.3609  0.3074  0.7941
   28MOL   C309 9003   2.232   2.757   3.686 -0.6441  0.1973 -0.2692
   28MOL  Cl310 9004   2.372   2.666   3.715 -0.1189  0.1976  0.1347
   28MOL   C311 9005   2.219   2.894   3.720 -0.0552  0.2579 -0.2296
   28MOL   C312 9006   2.106   2.963   3.691  0.1079  0.6528  0.6165
   28MOL   C313 9007   1.996   2.899   3.631  0.6141 -0.1434 -0.6620
   28MOL   C314 9008   1.896   2.656   3.408  0.1135  0.0863  0.3008
   28MOL   H315 9009   1.788   2.769   3.550  1.2824  1.0450  1.5361
   28MOL   H316 9010   2.120   2.586   3.597 -0.8742  0.1876  1.1818
   28MOL   H317 9011   2.298   2.936   3.781  0.2295 -1.0426  0.3084
   28MOL   H318 9012   2.094   3.066   3.722 -1.1942  0.7735 -0.2644
   28MOL   H319 9013   1.910   2.961   3.612  0.0518 -0.3443  1.1634
   28MOL   H320 9014   1.949   2.561   3.402 -0.1499 -0.0850  0.6329
   28MOL   H321 9015   1.802   2.632   3.358  0.2408  0.2894 -0.0379
   28MOL   H322 9016   1.954   2.730   3.352  1.0919  0.7929  2.2203
   29MOL     C1 9017   5.481   6.169   0.540 -0.0001 -0.6404 -0.7375
   29MOL     C2 9018   5.437   6.291   0.619 -0.3670  1.0689 -0.5907
   29MOL     C3 9019   5.367   6.396   0.561 -0.4709 -0.1332  0.5158
   29MOL     C4 9020   5.306   6.500   0.641  0.1736 -0.0762  0.6476
   29MOL    Cl5 9021   5.199   6.610   0.570 -0.1396  0.1928  0.1103
   29MOL     C6 9022   5.326   6.497   0.777  0.5472  0.2207  0.9793
   29MOL     C7 9023   5.406   6.404   0.838 -0.7314  0.0303  0.5526
   29MOL     C8 9024   5.457   6.300   0.761  0.4490  0.4134  0.6678
   29MOL     C9 9025   5.607   6.183   0.454 -0.7394  0.2077 -0.5109
   29MOL    H10 9026   5.400   6.135   0.476 -0.4006  0.1108 -0.6395
   29MOL    H11 9027   5.352   6.387   0.455  1.1092 -1.9290  0.4344
   29MOL    H12 9028   5.273   6.565   0.841 -1.1105 -0.0947 -0.0414
   29MOL    H13 9029   5.416   6.408   0.946  0.3610  0.2352  0.4553
   29MOL    H14 9030   5.504   6.219   0.814 -1.2805 -0.4702  0.8733
   29MOL    H15 9031   5.691   6.194   0.521  0.4888 -0.9620 -1.8259
   29MOL    H16 9032   5.624   6.092   0.396 -1.4977 -0.5911  0.4882
   29MOL    H17 9033   5.480   6.101   0.624  0.8054 -1.0696 -1.0701
   29MOL    C18 9034   5.605   6.302   0.351  0.4701  0.4932 -0.1227
   29MOL    C19 9035   5.741   6.319   0.283 -0.2331 -0.1065 -0.1768
   29MOL    C20 9036   5.797   6.223   0.199  0.5820  0.4991 -0.8262
   29MOL    C21 9037   5.898   6.252   0.101  0.0610  0.1904 -0.7908
   29MOL   Cl22 9038   5.969   6.124   0.007  0.2869 -0.4135  0.1711
   29MOL    C23 9039   5.944   6.381   0.088  0.1135  0.2423  0.3382
   29MOL    C24 9040   5.888   6.477   0.176 -0.2565 -0.7067 -0.0790
   29MOL    C25 9041   5.793   6.451   0.270 -0.4333  0.6200 -0.5012
   29MOL    C26 9042   5.500   6.285   0.233  0.5980 -0.0856  0.5088
   29MOL    H27 9043   5.581   6.394   0.404  2.6413  0.0423  1.7204
   29MOL    H28 9044   5.752   6.126   0.209 -0.9061  1.2947  0.3906
   29MOL    H29 9045   6.018   6.416   0.017 -1.0469 -1.3894 -1.7505
   29MOL    H30 9046   5.920   6.580   0.171 -0.2228 -0.6547  1.0543
   29MOL    H31 9047   5.752   6.528   0.333  0.5405 -0.4300  1.4560
   29MOL    H32 9048   5.534   6.193   0.186  0.7047  1.2114 -2.0775
   29MOL    H33 9049   5.393   6.282   0.251  0.7283  1.2530  1.6291
   29MOL    C34 9050   5.515   6.389   0.118 -0.8258  1.0181  0.1488
   29MOL    C35 9051   5.465   6.324   8.422  0.2799  0.1899  0.2739
   29MOL    C36 9052   5.326   6.294   8.410  0.2059 -0.2007  0.1733
   29MOL    C37 9053   5.281   6.228   8.291  0.0876 -0.9373 -0.1864
   29MOL   Cl38 9054   5.121   6.163   8.289  0.1350 -0.0891  0.0410
   29MOL    C39 9055   5.367   6.212   8.176 -0.4118  0.8074 -0.8036
   29MOL    C40 9056   5.500   6.242   8.191 -0.2159 -0.7795 -0.1316
   29MOL    C41 9057   5.555   6.290   8.314  0.0836 -0.6896 -0.5883
   29MOL    C42 9058   5.452   6.527   0.146  1.0165 -0.2316  0.2823
   29MOL    H43 9059   5.617   6.406   0.084  0.2609  0.3628  2.9602
   29MOL    H44 9060   5.258   6.320   0.055  0.7009  2.1794 -0.1609
   29MOL    H45 9061   5.335   6.180   8.078 -0.3980 -1.5231 -0.0786
   29MOL    H46 9062   5.560   6.239   8.101 -0.3551  3.2096 -0.4446
   29MOL    H47 9063   5.662   6.303   8.328  0.1723 -1.2348 -0.7400
   29MOL    H48 9064   5.346   6.516   0.168  0.8034 -0.8444 -1.0437
   29MOL    H49 9065   5.492   6.566   0.240 -1.5142 -0.3751  1.4426
   29MOL    C50 9066   5.488   6.640   0.045 -0.1480  0.2882  0.0521
   29MOL    C51 9067   5.416   6.771   0.081 -0.7331 -0.2473  0.2070
   29MOL    C52 9068   5.308   6.826   0.003  0.1672  0.2074  0.4281
   29MOL    C53 9069   5.247   6.950   0.032  0.3678  0.4553  0.2464
   29MOL   Cl54 9070   5.126   7.019   8.363 -0.2158 -0.0917  0.3824
   29MOL    C55 9071   5.287   7.017   0.147  0.2825  0.0799 -0.3244
   29MOL    C56 9072   5.402   6.967   0.220 -0.5955 -0.0098  0.1879
   29MOL    C57 9073   5.469   6.846   0.190 -0.2891  0.4744  0.4236
   29MOL    C58 9074   5.643   6.658   0.019 -0.3502  0.3691 -0.0003
   29MOL    H59 9075   5.450   6.593   8.389 -1.2161 -2.3538  1.7941
   29MOL    H60 9076   5.258   6.775   8.356 -0.4032 -0.3618  1.1141
   29MOL    H61 9077   5.235   7.110   0.167  1.8407  0.8689  0.0893
   29MOL    H62 9078   5.442   7.034   0.295 -1.0363 -1.5126  1.8026
   29MOL    H63 9079   5.557   6.822   0.247 -1.6087 -0.9358  1.9370
   29MOL    H64 9080   5.689   6.672   0.117 -2.2707 -0.8496  1.0921
   29MOL    H65 9081   5.666   6.564   8.404  0.7730  1.7065 -2.0973
   29MOL    C66 9082   5.682   6.762   8.355 -0.2319 -0.3100  0.3743
   29MOL    C67 9083   5.835   6.781   8.347 -0.3175 -0.2442 -0.7788
   29MOL    C68 9084   5.915   6.676   8.288 -0.4146  0.2491 -0.0646
   29MOL    C69 9085   6.053   6.705   8.256  0.4476 -0.1385 -0.5429
   29MOL   Cl70 9086   6.161   6.584   8.195  0.3432 -0.2841 -0.4459
   29MOL    C71 9087   6.103   6.834   8.283  0.0242  0.2394  0.3355
   29MOL    C72 9088   6.025   6.931   8.352 -0.5661 -0.7180  0.0060
   29MOL    C73 9089   5.888   6.905   8.380 -0.0986  0.0649 -0.3307
   29MOL    C74 9090   5.611   6.750   8.215  0.0131  0.5211 -0.2431
   29MOL    H75 9091   5.648   6.859   8.393  0.5361  0.2770 -0.4126
   29MOL    H76 9092   5.882   6.577   8.262 -0.5310  0.1907  0.3066
   29MOL    H77 9093   6.205   6.854   8.253  0.8872 -3.1984  0.7784
   29MOL    H78 9094   6.059   7.032   8.371 -0.7471 -0.4954 -0.8382
   29MOL    H79 9095   5.829   6.987   8.419 -0.1713  0.7507 -1.8782
   29MOL    H80 9096   5.617   6.643   8.193  2.0245  0.5856 -0.1690
   29MOL    H81 9097   5.504   6.764   8.229  0.1388  1.8903 -0.6083
   29MOL    C82 9098   5.662   6.836   8.096  0.0266  0.7083  0.0688
   29MOL    C83 9099   5.587   6.797   7.973  0.3268 -0.0691  1.0177
   29MOL    C84 9100   5.466   6.855   7.939  0.1887 -0.3080  0.4972
   29MOL    C85 9101   5.403   6.823   7.817 -0.5868  0.3797  0.2554
   29MOL   Cl86 9102   5.256   6.905   7.783 -0.5441 -0.2712  0.0089
   29MOL    C87 9103   5.464   6.739   7.727  0.0696  0.5745  0.3413
   29MOL    C88 9104   5.578   6.667   7.771  0.4560  0.8598  0.4280
   29MOL    C89 9105   5.642   6.699   7.890  0.3323 -0.2972  0.6831
   29MOL    C90 9106   5.650   6.984   8.128  0.4424 -0.5106 -0.0906
   29MOL    H91 9107   5.766   6.816   8.072 -0.7719 -2.9387 -0.6033
   29MOL    H92 9108   5.428   6.934   8.001  0.3896 -1.2737  1.8748
   29MOL    H93 9109   5.418   6.695   7.640 -0.3873  0.2952  0.7238
   29MOL    H94 9110   5.618   6.590   7.707 -0.9144  0.8819 -0.4852
   29MOL    H95 9111   5.737   6.654   7.917 -0.4910 -2.2643  0.3664
   29MOL    H96 9112   5.547   7.014   8.145  0.4024 -0.4526 -0.4275
   29MOL    H97 9113   5.690   7.005   8.227  1.2714 -0.8715 -0.3404
   29MOL    C98 9114   5.731   7.072   8.029 -0.7108  0.7117  1.0963
   29MOL    C99 9115   5.689   7.216   8.056 -0.0902 -0.1178  0.0788
   29MOL   C100 9116   5.644   7.298   7.953 -0.2019 -0.3737 -0.1481
   29MOL   C101 9117   5.608   7.432   7.990 -0.4609  0.1236  0.5754
   29MOL  Cl102 9118   5.561   7.537   7.862  0.3333 -0.0176 -0.6427
   29MOL   C103 9119   5.610   7.480   8.121  0.6199 -0.1887 -0.0630
   29MOL   C104 9120   5.661   7.397   8.219  0.9856  0.0594  0.2390
   29MOL   C105 9121   5.702   7.265   8.185 -0.0271 -0.4423  0.0597
   29MOL   C106 9122   5.886   7.053   8.048  0.0630  0.0771  0.5120
   29MOL   H107 9123   5.706   7.045   7.926  1.2236  0.2741  0.7220
   29MOL   H108 9124   5.638   7.259   7.852 -3.0844  1.6019 -0.8019
   29MOL   H109 9125   5.584   7.581   8.148 -0.0133 -0.1656 -0.7644
   29MOL   H110 9126   5.686   7.437   8.316  0.7677  0.3356  0.1826
   29MOL   H111 9127   5.746   7.201   8.260  0.7160 -0.4490 -0.3825
   29MOL   H112 9128   5.906   7.091   8.148  0.3985 -2.8678  1.6411
   29MOL   H113 9129   5.924   6.950   8.047  1.4264  0.4967  3.1796
   29MOL   C114 9130   5.980   7.130   7.952  0.5542  0.2229 -0.3357
   29MOL   C115 9131   6.126   7.097   7.991 -0.0230 -0.1280 -0.4368
   29MOL   C116 9132   6.182   6.969   7.982 -0.3844  0.3259 -0.7026
   29MOL   C117 9133   6.316   6.954   8.017 -1.1791  0.5919  0.2546
   29MOL  Cl118 9134   6.390   6.800   8.000 -0.0524  0.1578 -0.0755
   29MOL   C119 9135   6.394   7.059   8.077  0.3968 -0.6018 -0.0898
   29MOL   C120 9136   6.336   7.181   8.082  0.3804 -0.3973 -1.1522
   29MOL   C121 9137   6.206   7.203   8.046  0.1841 -0.7059  0.7057
   29MOL   C122 9138   5.959   7.079   7.808  0.4124 -0.1778 -0.3041
   29MOL   H123 9139   5.951   7.234   7.965 -0.7304 -0.2919  1.1821
   29MOL   H124 9140   6.112   6.896   7.945 -1.4514  0.9391  0.0953
   29MOL   H125 9141   6.499   7.043   8.099  0.3514 -0.7901 -0.0116
   29MOL   H126 9142   6.397   7.255   8.131 -0.5515 -0.7374  0.5750
   29MOL   H127 9143   6.172   7.305   8.057  1.3529 -0.2207  0.0018
   29MOL   H128 9144   5.951   6.972   7.786  0.0100  0.1964 -2.0360
   29MOL   H129 9145   5.863   7.124   7.784  1.1270  0.2528 -2.3850
   29MOL   C130 9146   6.048   7.149   7.706  0.4191  0.4105  0.0074
   29MOL   C131 9147   6.171   7.069   7.662  0.4540  0.4341  0.3641
   29MOL   C132 9148   6.302   7.117   7.690  0.4186  0.4981  0.5570
   29MOL   C133 9149   6.418   7.044   7.650 -0.2430  0.5649  0.3372
   29MOL  Cl134 9150   6.577   7.107   7.652  0.0489 -0.1098 -0.3026
   29MOL   C135 9151   6.404   6.920   7.588  0.4340  0.5914  0.8358
   29MOL   C136 9152   6.272   6.880   7.552  0.6243 -0.3424  0.1062
   29MOL   C137 9153   6.158   6.950   7.585  0.0933  0.1401  0.6848
   29MOL   C138 9154   5.960   7.214   7.593 -0.2733  0.0385 -0.1664
   29MOL   H139 9155   6.093   7.239   7.747  1.4337  0.4680 -1.2113
   29MOL   H140 9156   6.318   7.205   7.751 -0.5093  1.3261 -0.3620
   29MOL   H141 9157   6.480   6.847   7.566  0.5558  0.4643  1.6480
   29MOL   H142 9158   6.267   6.780   7.511 -1.1990 -1.0406  1.9433
   29MOL   H143 9159   6.060   6.913   7.556  0.5068  0.6194 -1.4468
   29MOL   H144 9160   5.887   7.147   7.547  0.6065 -0.4228 -0.9116
   29MOL   H145 9161   5.899   7.284   7.650  0.7532  0.7696  0.0422
   29MOL   C146 9162   6.033   7.297   7.487 -0.1920  0.4613 -0.3571
   29MOL   C147 9163   6.108   7.214   7.387  0.1722 -0.3437  0.3110
   29MOL   C148 9164   6.030   7.132   7.300 -0.2850 -0.4638  0.9090
   29MOL   C149 9165   6.094   7.055   7.199  0.7413 -0.1029  0.4338
   29MOL  Cl150 9166   5.997   6.959   7.094  0.4232  0.4588 -0.1843
   29MOL   C151 9167   6.233   7.066   7.180  0.3696 -0.2300 -0.6372
   29MOL   C152 9168   6.307   7.160   7.258  0.4773 -0.4684  0.2003
   29MOL   C153 9169   6.243   7.239   7.357  0.8118 -0.5155 -0.1539
   29MOL   C154 9170   5.937   7.404   7.420 -0.5068 -0.3796 -0.8295
   29MOL   H155 9171   6.098   7.356   7.553 -0.1358 -3.1833  3.0450
   29MOL   H156 9172   5.925   7.125   7.326 -0.5286  1.1287  0.3672
   29MOL   H157 9173   6.288   7.004   7.111  0.7975 -2.0054  1.2518
   29MOL   H158 9174   6.412   7.177   7.239  0.7222 -0.5380  1.4271
   29MOL   H159 9175   6.295   7.321   7.404  1.8958  0.0278 -2.2442
   29MOL   H160 9176   5.986   7.462   7.342  0.3705 -0.6720 -0.5089
   29MOL   H161 9177   5.867   7.344   7.362  0.2344 -2.0563 -0.0273
   29MOL   C162 9178   5.855   7.496   7.509  0.6945 -1.0229  0.2391
   29MOL   C163 9179   5.946   7.579   7.598 -0.1902  0.7229  0.1957
   29MOL   C164 9180   6.045   7.665   7.541 -0.2778  0.9764 -0.1849
   29MOL   C165 9181   6.121   7.754   7.628  0.6026  0.8506 -0.5966
   29MOL  Cl166 9182   6.229   7.867   7.557 -0.1928  0.2006  0.1973
   29MOL   C167 9183   6.111   7.740   7.762  0.6171  0.2910  0.0575
   29MOL   C168 9184   6.019   7.651   7.816 -0.0600 -0.2156 -0.5138
   29MOL   C169 9185   5.934   7.576   7.738  0.0010  0.5211 -0.6197
   29MOL   C170 9186   5.755   7.584   7.434  0.3353 -0.4092 -0.5355
   29MOL   H171 9187   5.791   7.435   7.573 -0.5757  1.2869  1.2407
   29MOL   H172 9188   6.068   7.669   7.436 -0.2891 -0.3271 -0.2461
   29MOL   H173 9189   6.170   7.807   7.823  0.6386 -0.0144  0.3735
   29MOL   H174 9190   6.017   7.651   7.924 -0.7832  1.2527 -0.5154
   29MOL   H175 9191   5.850   7.522   7.778  0.1989 -0.7403 -1.8830
   29MOL   H176 9192   5.699   7.651   7.499 -0.2143 -0.5010 -0.9165
   29MOL   H177 9193   5.813   7.646   7.366 -0.2354  0.7687  0.0315
   29MOL   C178 9194   5.641   7.509   7.350 -0.5231 -0.0170  0.3116
   29MOL   C179 9195   5.583   7.385   7.414  0.0237  0.4089  0.0742
   29MOL   C180 9196   5.491   7.396   7.523 -0.0109 -0.0080  0.6644
   29MOL   C181 9197   5.439   7.282   7.592  0.4086  0.4011 -0.2925
   29MOL  Cl182 9198   5.312   7.309   7.714 -0.2429  0.2862  0.0580
   29MOL   C183 9199   5.488   7.150   7.566  0.5158  0.0208 -0.6850
   29MOL   C184 9200   5.570   7.141   7.449  0.3109 -0.1304  0.1606
   29MOL   C185 9201   5.619   7.253   7.377 -0.0536  0.1668 -0.5431
   29MOL   C186 9202   5.526   7.603   7.308 -0.0003 -0.5735  0.8269
   29MOL   H187 9203   5.686   7.478   7.256  1.3373 -0.5576  1.3593
   29MOL   H188 9204   5.447   7.491   7.551  2.0835  0.4652  2.5722
   29MOL   H189 9205   5.460   7.064   7.626  3.2429 -1.5671 -1.6206
   29MOL   H190 9206   5.622   7.049   7.427  1.8637  0.5051  1.1053
   29MOL   H191 9207   5.688   7.239   7.295  0.9993 -1.7906  0.6395
   29MOL   H192 9208   5.441   7.553   7.261  1.8088 -2.1733 -0.8373
   29MOL   H193 9209   5.480   7.641   7.399 -0.5427  0.5772  0.0836
   29MOL   C194 9210   5.562   7.731   7.226  0.4217  0.1022 -0.5272
   29MOL   C195 9211   5.605   7.686   7.088  0.3436 -0.1303  0.1275
   29MOL   C196 9212   5.738   7.712   7.045  0.6196 -0.2047  0.2950
   29MOL   C197 9213   5.775   7.666   6.918  0.1560  0.3911  0.0782
   29MOL  Cl198 9214   5.939   7.686   6.880 -0.1746 -0.0761 -0.3727
   29MOL   C199 9215   5.685   7.605   6.826 -0.1161  0.0872  0.3761
   29MOL   C200 9216   5.548   7.589   6.869 -0.3154  0.1735  0.5499
   29MOL   C201 9217   5.510   7.622   7.001  0.9610 -0.0969  0.2922
   29MOL   C202 9218   5.459   7.844   7.224  0.2392 -0.0350 -0.7095
   29MOL   H203 9219   5.655   7.770   7.269  0.5706 -0.5625 -0.2486
   29MOL   H204 9220   5.801   7.759   7.119  0.9233 -1.3666  0.7674
   29MOL   H205 9221   5.716   7.570   6.729 -1.6976  2.6568 -1.1215
   29MOL   H206 9222   5.482   7.541   6.798  1.3088  1.2319 -1.7753
   29MOL   H207 9223   5.412   7.608   7.044 -0.0141 -0.1346 -1.8482
   29MOL   H208 9224   5.467   7.896   7.129 -0.7843 -0.5106 -1.0694
   29MOL   H209 9225   5.362   7.799   7.203  0.6547 -1.9936  1.3443
   29MOL   C210 9226   5.451   7.938   7.342  0.1141  0.0928  0.3121
   29MOL   C211 9227   5.588   8.013   7.372 -0.2165 -0.1333  0.0218
   29MOL   C212 9228   5.658   7.994   7.496  0.0020  0.5980  0.1001
   29MOL   C213 9229   5.780   8.060   7.515 -0.9432  0.0998  0.3878
   29MOL  Cl214 9230   5.871   8.027   7.659  0.1256  0.0409  0.2306
   29MOL   C215 9231   5.843   8.123   7.413  0.2333  0.0446 -0.3270
   29MOL   C216 9232   5.776   8.143   7.288  0.1799 -0.1224 -0.3466
   29MOL   C217 9233   5.641   8.094   7.270 -0.2137 -0.2650 -0.6429
   29MOL   C218 9234   5.332   8.044   7.337 -0.1374 -0.6154 -0.3870
   29MOL   H219 9235   5.432   7.874   7.428  0.2695  1.8589  1.7099
   29MOL   H220 9236   5.612   7.937   7.575 -0.1751 -1.0339 -1.1666
   29MOL   H221 9237   5.942   8.163   7.426  0.0066  0.6377 -0.4041
   29MOL   H222 9238   5.818   8.196   7.204 -0.6213  0.7926 -0.1825
   29MOL   H223 9239   5.590   8.106   7.176  1.5493 -0.8538 -1.6956
   29MOL   H224 9240   5.348   8.108   7.423  0.3542 -1.0460 -0.1557
   29MOL   H225 9241   5.336   8.111   7.251 -0.1633 -0.7361 -0.4832
   29MOL   C226 9242   5.199   7.975   7.352  0.9821 -0.2598 -0.9633
   29MOL   C227 9243   5.192   7.879   7.472 -0.0326  0.7920  0.6060
   29MOL   C228 9244   5.151   7.745   7.452 -0.3763 -0.2121 -0.1888
   29MOL   C229 9245   5.125   7.661   7.567 -0.2912  0.3513 -0.6148
   29MOL  Cl230 9246   5.076   7.502   7.546  0.0169 -0.1027  0.3211
   29MOL   C231 9247   5.167   7.702   7.701  0.0909 -0.4074 -0.4331
   29MOL   C232 9248   5.206   7.840   7.723 -0.3326  0.6415 -0.3773
   29MOL   C233 9249   5.215   7.926   7.604  0.1159  0.4696 -1.2140
   29MOL   C234 9250   5.076   8.069   7.361 -0.3797  0.3414  0.7270
   29MOL   H235 9251   5.180   7.920   7.260 -0.5175  0.4311 -1.0750
   29MOL   H236 9252   5.123   7.706   7.355 -0.5467 -1.0644  0.1957
   29MOL   H237 9253   5.161   7.626   7.778 -0.0569 -0.9279 -0.9504
   29MOL   H238 9254   5.221   7.874   7.824 -2.1134  0.2830  0.0216
   29MOL   H239 9255   5.231   8.031   7.619 -0.6801  0.3182  0.8895
   29MOL   H240 9256   4.998   8.021   7.419  0.6406 -2.1368  0.1230
   29MOL   H241 9257   5.108   8.141   7.438  1.0116 -0.6519  1.1067
   29MOL   C242 9258   5.006   8.123   7.234 -0.6991  0.5224  0.0693
   29MOL   C243 9259   4.916   8.023   7.160  0.3071 -0.4960 -0.4334
   29MOL   C244 9260   4.959   7.979   7.031 -0.2497 -0.2162  0.1581
   29MOL   C245 9261   4.873   7.886   6.960 -0.0255  0.5049 -0.2200
   29MOL  Cl246 9262   4.906   7.836   6.803  0.4467  0.0932  0.1424
   29MOL   C247 9263   4.763   7.826   7.025  0.7793  0.4778  0.0155
   29MOL   C248 9264   4.724   7.862   7.155 -0.0200  0.0876  0.1353
   29MOL   C249 9265   4.800   7.960   7.219  0.5961  0.3543 -0.1191
   29MOL   C250 9266   4.948   8.261   7.262 -0.3878  0.3441  0.7974
   29MOL   H251 9267   5.095   8.124   7.170  1.6415 -1.4843  3.1424
   29MOL   H252 9268   5.038   8.034   6.982  1.6667 -0.2799  3.0337
   29MOL   H253 9269   4.707   7.740   6.994 -3.3624  2.3219  1.9883
   29MOL   H254 9270   4.637   7.830   7.211 -0.5433  0.2180 -0.6024
   29MOL   H255 9271   4.772   7.979   7.322 -0.3915  1.1740 -0.5287
   29MOL   H256 9272   4.866   8.275   7.191 -1.2840 -1.5880  1.4257
   29MOL   H257 9273   4.910   8.266   7.364 -3.9829 -0.1811 -0.4265
   29MOL   C258 9274   5.042   8.377   7.230 -0.3097  0.2608  0.0148
   29MOL   C259 9275   4.958   0.068   7.214 -0.4106 -0.3850 -0.0888
   29MOL   C260 9276   4.965   0.150   7.101  0.2582  0.2692  0.2044
   29MOL   C261 9277   4.902   0.273   7.111 -0.5399 -0.1320 -0.1459
   29MOL  Cl262 9278   4.916   0.385   6.984 -0.2338  0.2303  0.0141
   29MOL   C263 9279   4.821   0.314   7.220  0.1939  0.2681 -0.4199
   29MOL   C264 9280   4.797   0.222   7.322  0.2378 -0.5195 -0.2825
   29MOL   C265 9281   4.873   0.105   7.319 -0.2365  0.5832  0.0150
   29MOL   C266 9282   5.159   8.391   7.330  0.4428  0.1427  0.2909
   29MOL   H267 9283   5.084   8.360   7.131  2.5217 -1.0568  1.4038
   29MOL   H268 9284   5.034   0.136   7.019  1.6086  0.1371  1.3463
   29MOL   H269 9285   4.768   0.408   7.216 -1.1839 -0.5031 -0.9053
   29MOL   H270 9286   4.740   0.242   7.411  0.0082  0.5733 -0.6673
   29MOL   H271 9287   4.855   0.032   7.396 -1.3338  0.8686  0.0344
   29MOL   H272 9288   5.124   8.396   7.433  1.8272 -0.0627  0.7833
   29MOL   H273 9289   5.227   8.308   7.311 -0.7552 -0.9610  0.8276
   29MOL   C274 9290   5.238   0.092   7.310 -0.0126 -0.0201  0.1217
   29MOL   C275 9291   5.337   0.116   7.429 -0.4848 -0.0813 -0.0283
   29MOL   C276 9292   5.444   0.029   7.455 -0.0839 -0.5765 -0.2765
   29MOL   C277 9293   5.534   0.060   7.555 -0.5316 -0.5388 -0.1821
   29MOL  Cl278 9294   5.665   8.390   7.583 -0.1824 -0.1082  0.5120
   29MOL   C279 9295   5.507   0.167   7.645  0.3093 -0.3888 -0.3716
   29MOL   C280 9296   5.399   0.250   7.624  0.0710 -0.4513 -0.2153
   29MOL   C281 9297   5.309   0.227   7.512 -1.3964 -0.4058  0.0293
   29MOL   C282 9298   5.321   0.101   7.183  0.4554  0.1488 -0.4877
   29MOL   H283 9299   5.162   0.169   7.308 -2.5233 -2.4286 -1.8437
   29MOL   H284 9300   5.465   8.378   7.393  0.8219 -1.7023  1.5423
   29MOL   H285 9301   5.583   0.190   7.718  0.3566  0.9035 -0.8238
   29MOL   H286 9302   5.383   0.328   7.697 -3.3519 -4.6167  3.8108
   29MOL   H287 9303   5.222   0.287   7.489 -0.4546  0.3425 -1.6831
   29MOL   H288 9304   5.398   0.023   7.178  2.4005  2.0773 -1.1743
   29MOL   H289 9305   5.247   0.078   7.106 -1.1663 -0.3555  1.1845
   29MOL   C290 9306   5.389   0.239   7.157 -0.0848 -0.4976  0.0767
   29MOL   C291 9307   5.534   0.253   7.212  0.0457 -0.1025 -0.1276
   29MOL   C292 9308   5.634   0.156   7.184 -0.0520  0.3519 -0.7335
   29MOL   C293 9309   5.766   0.170   7.233 -0.1767 -0.9529  0.3400
   29MOL  Cl294 9310   5.890   0.048   7.200  0.1378  0.0153 -0.0015
   29MOL   C295 9311   5.800   0.288   7.309 -0.5926  0.4450  0.6891
   29MOL   C296 9312   5.700   0.384   7.340 -1.2105  0.1558  0.7720
   29MOL   C297 9313   5.570   0.362   7.292 -0.5538 -0.5116 -0.8198
   29MOL   C298 9314   5.374   0.299   7.016  0.3858 -0.5548 -0.0990
   29MOL   H299 9315   5.325   0.308   7.211 -0.2434 -0.8933  0.3978
   29MOL   H300 9316   5.606   0.061   7.142  0.6724 -1.1110  2.0419
   29MOL   H301 9317   5.901   0.297   7.347  0.7847  0.8926 -2.9598
   29MOL   H302 9318   5.715   0.468   7.405 -0.2422  2.1151 -1.8883
   29MOL   H303 9319   5.502   0.444   7.309  0.6719  0.5119 -0.7891
   29MOL   H304 9320   5.445   0.239   6.959  0.9333  0.8260 -0.8817
   29MOL   H305 9321   5.282   0.260   6.971  0.8667 -1.5505 -0.2356
   29MOL   C306 9322   5.386   0.449   7.003 -0.3130 -0.3891  0.5046
   29MOL   C307 9323   5.406   0.490   6.855 -0.3795 -0.0434  0.4065
   29MOL   C308 9324   5.305   0.473   6.761  0.4998  0.2096 -0.6247
   29MOL   C309 9325   5.330   0.515   6.632  0.1980  0.0714 -0.4328
   29MOL  Cl310 9326   5.216   0.480   6.515 -0.0776  0.4205 -0.1022
   29MOL   C311 9327   5.448   0.582   6.588  0.5000  0.1042 -0.3890
   29MOL   C312 9328   5.553   0.587   6.683 -0.6266 -0.1838 -0.3853
   29MOL   C313 9329   5.531   0.543   6.811 -0.2336 -0.1443 -0.5194
   29MOL   C314 9330   5.277   0.539   7.063  0.7770 -0.0361 -0.1962
   29MOL   H315 9331   5.475   0.479   7.058 -0.4550  0.5026  0.2610
   29MOL   H316 9332   5.216   0.427   6.799  2.1101  0.0618  3.1829
   29MOL   H317 9333   5.469   0.619   6.488  3.3807 -5.2578 -1.9982
   29MOL   H318 9334   5.646   0.627   6.648 -1.2327  0.2752 -1.5086
   29MOL   H319 9335   5.610   0.551   6.883  1.9245 -2.3659 -2.5494
   29MOL   H320 9336   5.303   0.644   7.054 -4.3653  1.6273  2.3633
   29MOL   H321 9337   5.174   0.516   7.037  0.1854 -0.5544  2.3949
   29MOL   H322 9338   5.278   0.526   7.171  1.3282 -1.9464 -0.4126
   30MOL     C1 9339   2.255   3.128   6.552  0.2176  0.2273  0.4771
   30MOL     C2 9340   2.287   2.993   6.618  0.2949 -0.6886 -0.2966
   30MOL     C3 9341   2.412   2.930   6.592  0.1577  0.5075 -0.6018
   30MOL     C4 9342   2.443   2.816   6.667  0.8576 -0.1069  0.0553
   30MOL    Cl5 9343   2.598   2.742   6.635  0.1814 -0.3628 -0.3004
   30MOL     C6 9344   2.352   2.751   6.753 -0.7270 -0.6753  0.2693
   30MOL     C7 9345   2.228   2.811   6.775 -0.9334 -0.5240 -0.0120
   30MOL     C8 9346   2.195   2.928   6.706 -0.8044  0.2086  0.5561
   30MOL     C9 9347   2.298   3.248   6.639 -0.0296  0.6743 -0.0478
   30MOL    H10 9348   2.146   3.124   6.552  0.2201 -0.3435 -1.2070
   30MOL    H11 9349   2.488   2.983   6.537  2.5968  1.5909  3.5817
   30MOL    H12 9350   2.382   2.653   6.788  0.2843 -0.4769 -0.0262
   30MOL    H13 9351   2.152   2.759   6.833 -1.1479 -0.9862 -0.6987
   30MOL    H14 9352   2.093   2.963   6.718 -1.1002 -0.1966 -0.6708
   30MOL    H15 9353   2.256   3.340   6.599 -2.8339 -0.4062  0.2819
   30MOL    H16 9354   2.249   3.233   6.735  1.0134 -0.5633  0.3136
   30MOL    H17 9355   2.290   3.141   6.450  0.7431 -0.5368  0.5569
   30MOL    C18 9356   2.455   3.268   6.644 -0.3780 -0.0885 -0.2590
   30MOL    C19 9357   2.519   3.307   6.509 -0.6311 -0.0738  0.0608
   30MOL    C20 9358   2.624   3.232   6.458  0.2482  0.2972  0.0781
   30MOL    C21 9359   2.674   3.254   6.327 -0.4097 -0.7548 -0.3490
   30MOL   Cl22 9360   2.805   3.166   6.273  0.2428 -0.0362 -0.1805
   30MOL    C23 9361   2.622   3.374   6.265 -0.2838 -0.3635  0.2409
   30MOL    C24 9362   2.522   3.466   6.317 -0.3994  0.1267 -0.2185
   30MOL    C25 9363   2.468   3.422   6.440 -0.2966 -0.2586 -0.7417
   30MOL    C26 9364   2.493   3.388   6.737 -0.4771 -0.3144  0.1803
   30MOL    H27 9365   2.503   3.187   6.698  0.3997  0.7113  0.2621
   30MOL    H28 9366   2.653   3.142   6.511 -0.0141 -0.0696 -0.3922
   30MOL    H29 9367   2.662   3.402   6.169 -3.3779  0.9053 -0.7389
   30MOL    H30 9368   2.492   3.560   6.274  0.0477  0.8875  1.0800
   30MOL    H31 9369   2.379   3.465   6.483 -0.6112  1.4691 -3.0105
   30MOL    H32 9370   2.443   3.480   6.708 -0.6455 -0.8355 -1.1937
   30MOL    H33 9371   2.441   3.363   6.830 -1.4641  1.6336  0.1891
   30MOL    C34 9372   2.648   3.418   6.754 -0.6420 -0.3978  1.0317
   30MOL    C35 9373   2.673   3.568   6.754 -0.2833 -0.9796  0.4056
   30MOL    C36 9374   2.594   3.654   6.833 -0.0125  0.5896 -0.2252
   30MOL    C37 9375   2.609   3.793   6.819  0.3461 -0.0420  0.1781
   30MOL   Cl38 9376   2.512   3.907   6.909 -0.3121 -0.1094  0.2283
   30MOL    C39 9377   2.713   3.848   6.737  0.3222  0.7540 -0.1018
   30MOL    C40 9378   2.792   3.764   6.662  0.3557  0.0821  0.2855
   30MOL    C41 9379   2.775   3.624   6.670 -1.4649  0.4436 -0.4696
   30MOL    C42 9380   2.707   3.370   6.886  0.5516  0.1105  0.1383
   30MOL    H43 9381   2.701   3.378   6.667 -2.6317 -0.3348 -0.2320
   30MOL    H44 9382   2.524   3.604   6.899  1.3860 -0.1085  0.7449
   30MOL    H45 9383   2.725   3.955   6.733 -1.0074  0.8820 -0.8673
   30MOL    H46 9384   2.873   3.809   6.607 -0.9630  0.3904 -1.4410
   30MOL    H47 9385   2.841   3.558   6.617 -1.7021 -0.7245  0.6727
   30MOL    H48 9386   2.798   3.422   6.912 -1.5620  4.3268 -0.5445
   30MOL    H49 9387   2.637   3.395   6.966  0.5755  2.3155 -0.5088
   30MOL    C50 9388   2.733   3.222   6.893  0.4901  0.0833  0.1032
   30MOL    C51 9389   2.823   3.170   6.788  0.2077  0.2610 -0.2055
   30MOL    C52 9390   2.929   3.242   6.726 -0.2962  0.0275 -0.3173
   30MOL    C53 9391   2.997   3.187   6.609  1.0604 -0.5473  0.7719
   30MOL   Cl54 9392   3.124   3.262   6.528  0.1781  0.0221 -0.0177
   30MOL    C55 9393   2.963   3.059   6.563 -0.0288  0.1145 -0.1622
   30MOL    C56 9394   2.877   2.975   6.636  0.4266  0.0291 -0.2636
   30MOL    C57 9395   2.806   3.033   6.746  1.4616  0.8701  0.0320
   30MOL    C58 9396   2.761   3.166   7.031  0.2819 -0.2461 -0.0543
   30MOL    H59 9397   2.636   3.176   6.877  0.7899 -0.6666  0.4089
   30MOL    H60 9398   2.954   3.340   6.762  0.0166 -0.4015  0.6675
   30MOL    H61 9399   3.016   3.024   6.476 -0.6697 -1.0551 -0.0887
   30MOL    H62 9400   2.856   2.873   6.607  0.0626  0.2923 -0.9564
   30MOL    H63 9401   2.730   2.976   6.797  0.9410  1.9114  0.4534
   30MOL    H64 9402   2.689   3.202   7.105 -1.0715 -1.7153 -0.6352
   30MOL    H65 9403   2.750   3.058   7.027 -2.0228 -0.1076  1.3293
   30MOL    C66 9404   2.912   3.179   7.077 -0.1830  0.0675 -0.2509
   30MOL    C67 9405   2.957   3.320   7.106 -0.5360 -0.2856 -0.5167
   30MOL    C68 9406   3.070   3.372   7.043 -0.3818 -0.4733 -0.2606
   30MOL    C69 9407   3.098   3.511   7.067  0.4897  0.6095 -0.1408
   30MOL   Cl70 9408   3.235   3.585   6.998 -0.3192  0.4493  0.0837
   30MOL    C71 9409   3.028   3.582   7.166 -0.9530  0.3030  0.0918
   30MOL    C72 9410   2.914   3.530   7.222  0.5381  0.0171 -0.6327
   30MOL    C73 9411   2.878   3.397   7.191 -0.3484  0.6343  1.0363
   30MOL    C74 9412   2.954   3.085   7.200  0.1424  0.1760  0.1237
   30MOL    H75 9413   2.972   3.146   6.992 -0.2020 -0.5224 -0.0364
   30MOL    H76 9414   3.133   3.317   6.975  1.7803 -0.3725  1.6237
   30MOL    H77 9415   3.062   3.680   7.197 -0.7081  0.1031  0.4637
   30MOL    H78 9416   2.852   3.591   7.286 -1.0777 -0.1120 -2.0552
   30MOL    H79 9417   2.799   3.345   7.242 -0.7142  1.8926  1.7480
   30MOL    H80 9418   2.918   3.129   7.293  2.3031  0.3258  0.9200
   30MOL    H81 9419   2.895   2.993   7.196  0.4870 -0.0679  0.5553
   30MOL    C82 9420   3.102   3.042   7.209 -0.5429 -0.2333  0.1046
   30MOL    C83 9421   3.192   3.158   7.268  0.1670  0.3544  0.4582
   30MOL    C84 9422   3.319   3.194   7.211  0.2872  0.1339  0.1158
   30MOL    C85 9423   3.400   3.297   7.273  0.3585  0.3985 -0.3975
   30MOL   Cl86 9424   3.560   3.329   7.228 -0.2008 -0.4113  0.0315
   30MOL    C87 9425   3.344   3.372   7.383  0.5640  0.5154 -0.5306
   30MOL    C88 9426   3.216   3.338   7.434 -0.2659 -0.0531  0.0178
   30MOL    C89 9427   3.147   3.231   7.379 -0.0630  0.4631  0.0500
   30MOL    C90 9428   3.113   2.919   7.306 -0.6431 -0.1716  0.9642
   30MOL    H91 9429   3.138   3.002   7.115 -2.5120 -0.9816 -0.3560
   30MOL    H92 9430   3.359   3.136   7.128  1.1339  1.8766 -0.7125
   30MOL    H93 9431   3.398   3.458   7.419  2.3440 -0.9919  0.4845
   30MOL    H94 9432   3.173   3.403   7.509 -0.0497  2.0489 -1.6149
   30MOL    H95 9433   3.055   3.214   7.433  0.6583  1.2199  1.5734
   30MOL    H96 9434   3.089   2.958   7.405 -2.4761  1.0350  0.0814
   30MOL    H97 9435   3.030   2.853   7.282 -0.3420 -0.1576 -0.1644
   30MOL    C98 9436   3.232   2.831   7.301  0.4806 -0.1023 -0.3949
   30MOL    C99 9437   3.228   2.735   7.419 -0.2566  0.3016 -0.0302
   30MOL   C100 9438   3.150   2.619   7.419 -0.7670  0.1763  0.6873
   30MOL   C101 9439   3.152   2.525   7.522  0.1463  0.0762 -0.0950
   30MOL  Cl102 9440   3.035   2.395   7.513  0.0711 -0.1726 -0.2015
   30MOL   C103 9441   3.248   2.540   7.623 -0.5905 -0.1704 -0.1514
   30MOL   C104 9442   3.335   2.653   7.622  0.2712  0.0437 -0.8252
   30MOL   C105 9443   3.323   2.751   7.525 -0.2906  0.2851  0.4898
   30MOL   C106 9444   3.252   2.751   7.171 -0.0128  1.0154  0.2989
   30MOL   H107 9445   3.313   2.903   7.309  2.2822 -2.0262 -0.8068
   30MOL   H108 9446   3.074   2.604   7.344  1.5471 -1.2833 -1.4406
   30MOL   H109 9447   3.256   2.468   7.704 -2.4861 -0.6513 -0.3694
   30MOL   H110 9448   3.395   2.672   7.709 -2.8096  0.2563  1.3420
   30MOL   H111 9449   3.389   2.836   7.537  0.3232  0.0571 -1.1588
   30MOL   H112 9450   3.171   2.680   7.155  3.4793 -3.5618  1.7563
   30MOL   H113 9451   3.250   2.826   7.092  0.1541 -0.5825 -1.2418
   30MOL   C114 9452   3.383   2.678   7.162  1.0543  0.2242 -0.3906
   30MOL   C115 9453   3.501   2.767   7.137  0.2492  0.2151  0.0704
   30MOL   C116 9454   3.565   2.757   7.009  0.2564 -0.0972 -0.4328
   30MOL   C117 9455   3.681   2.835   6.982  0.0452 -0.1211 -0.7895
   30MOL  Cl118 9456   3.756   2.813   6.830  0.4701  0.0598  0.0786
   30MOL   C119 9457   3.729   2.922   7.077  0.4275  0.8521 -0.1785
   30MOL   C120 9458   3.670   2.930   7.202  0.0750 -0.0032 -0.6697
   30MOL   C121 9459   3.560   2.843   7.237 -0.6725 -0.0384  0.1946
   30MOL   C122 9460   3.418   2.560   7.256 -1.1023 -0.0471 -0.3912
   30MOL   H123 9461   3.358   2.624   7.071  1.0362  0.2326 -0.3902
   30MOL   H124 9462   3.528   2.692   6.931 -2.0758 -1.2089  1.5501
   30MOL   H125 9463   3.816   2.984   7.063  0.6620  0.3506 -1.0001
   30MOL   H126 9464   3.703   2.998   7.280  0.6067  0.4840 -1.3121
   30MOL   H127 9465   3.520   2.837   7.337 -0.8412  0.5024  0.1617
   30MOL   H128 9466   3.433   2.614   7.349 -0.1244  2.4807 -1.9762
   30MOL   H129 9467   3.338   2.488   7.271  1.3441 -2.7784  0.1891
   30MOL   C130 9468   3.549   2.475   7.225 -0.5719 -0.2031  0.2901
   30MOL   C131 9469   3.589   2.400   7.351  0.3141  0.4997  0.2188
   30MOL   C132 9470   3.666   2.462   7.451  1.0184  0.0636  0.0106
   30MOL   C133 9471   3.694   2.392   7.573  0.3780 -0.1207  0.2666
   30MOL  Cl134 9472   3.803   2.468   7.680  0.2765 -0.4322  0.4407
   30MOL   C135 9473   3.647   2.262   7.601 -0.4724  0.0192  0.0099
   30MOL   C136 9474   3.574   2.199   7.500 -0.3170  0.3563  0.2233
   30MOL   C137 9475   3.547   2.266   7.377  0.5368  0.2787 -0.8058
   30MOL   C138 9476   3.523   2.384   7.101 -0.3888  0.5767 -0.1539
   30MOL   H139 9477   3.629   2.543   7.197 -1.9003  1.8018  1.2376
   30MOL   H140 9478   3.701   2.564   7.436  0.5317  0.5367  1.9573
   30MOL   H141 9479   3.679   2.228   7.699 -1.9442  0.7073  0.7532
   30MOL   H142 9480   3.552   2.094   7.513 -0.6834  0.5066  0.8331
   30MOL   H143 9481   3.503   2.211   7.295  0.8752 -0.6906 -0.3477
   30MOL   H144 9482   3.439   2.318   7.125  1.1420 -1.4325 -0.1727
   30MOL   H145 9483   3.487   2.444   7.018  1.9492 -0.2213 -1.7701
   30MOL   C146 9484   3.643   2.299   7.055 -0.0606 -0.0342  0.9498
   30MOL   C147 9485   3.584   2.166   6.998  0.0874  0.4491 -0.3391
   30MOL   C148 9486   3.510   2.161   6.879  0.0718  0.5344 -0.5523
   30MOL   C149 9487   3.468   2.043   6.817  0.0946  0.5988  0.4231
   30MOL  Cl150 9488   3.392   2.038   6.659  0.3577  0.2159  0.1276
   30MOL   C151 9489   3.488   1.922   6.894  0.3009  0.5692  0.0846
   30MOL   C152 9490   3.548   1.921   7.019  0.4658  0.2917  0.4970
   30MOL   C153 9491   3.595   2.044   7.074 -0.1596 -0.3333 -0.5254
   30MOL   C154 9492   3.720   2.377   6.942  0.5108  0.3677 -0.4708
   30MOL   H155 9493   3.707   2.267   7.137  1.5604  1.3645  0.2496
   30MOL   H156 9494   3.505   2.263   6.843  0.9232  1.5768  2.1073
   30MOL   H157 9495   3.449   1.834   6.846  1.0972  0.0380  0.4045
   30MOL   H158 9496   3.554   1.835   7.084  1.5396  0.2796  0.3943
   30MOL   H159 9497   3.638   2.048   7.173  1.2371 -1.5432 -1.0580
   30MOL   H160 9498   3.653   2.419   6.867 -0.9940  1.3274  1.3510
   30MOL   H161 9499   3.748   2.476   6.978  0.6693  0.4129 -0.7199
   30MOL   C162 9500   3.837   2.296   6.875  0.3517  0.3942 -0.3490
   30MOL   C163 9501   3.894   2.374   6.753 -0.3242  0.2987  0.0250
   30MOL   C164 9502   3.933   2.507   6.756  0.1430  0.4076  0.0569
   30MOL   C165 9503   3.961   2.577   6.638 -0.2586 -0.2380 -0.4791
   30MOL  Cl166 9504   3.997   2.746   6.639  0.1073  0.3364  0.1207
   30MOL   C167 9505   3.951   2.498   6.515 -0.4714 -0.3819 -0.0525
   30MOL   C168 9506   3.937   2.357   6.519  1.0435  0.3750 -0.2869
   30MOL   C169 9507   3.905   2.295   6.639 -0.6058  0.5877  0.2861
   30MOL   C170 9508   3.951   2.241   6.969 -0.4259  0.0809  0.5781
   30MOL   H171 9509   3.782   2.206   6.847 -0.2839  0.0136  2.0052
   30MOL   H172 9510   3.917   2.552   6.853 -0.0366 -0.5810  0.4900
   30MOL   H173 9511   3.964   2.547   6.419  1.4251 -1.2861 -0.2736
   30MOL   H174 9512   3.943   2.287   6.437  1.3103 -0.1511  0.1763
   30MOL   H175 9513   3.864   2.195   6.639 -0.1464  0.3939 -1.1882
   30MOL   H176 9514   3.922   2.175   7.051 -3.1008  0.1803 -0.2352
   30MOL   H177 9515   4.000   2.175   6.897 -1.5322 -1.0021  0.8025
   30MOL   C178 9516   4.069   2.342   7.008 -0.0594  0.4806  0.0732
   30MOL   C179 9517   4.034   2.429   7.126  0.0118  0.1522 -0.8956
   30MOL   C180 9518   4.023   2.572   7.104 -0.4780 -0.0698  0.7148
   30MOL   C181 9519   3.994   2.655   7.209  0.2833 -1.0271  1.1853
   30MOL  Cl182 9520   4.033   2.820   7.185  0.6064 -0.1440 -0.2492
   30MOL   C183 9521   3.962   2.611   7.333 -0.1087 -0.3583 -0.3686
   30MOL   C184 9522   3.988   2.475   7.362  0.2804 -0.1762  0.0897
   30MOL   C185 9523   4.029   2.385   7.261 -0.4929 -0.4983 -0.0055
   30MOL   C186 9524   4.197   2.266   7.042 -0.3779 -0.6854  0.3653
   30MOL   H187 9525   4.101   2.405   6.925  0.3415 -0.2823 -0.3603
   30MOL   H188 9526   4.046   2.613   7.007 -1.3739 -0.7643  0.2031
   30MOL   H189 9527   3.940   2.683   7.410 -1.1034 -0.6301 -0.3905
   30MOL   H190 9528   3.969   2.436   7.461 -2.0031 -0.1262 -0.3104
   30MOL   H191 9529   4.062   2.287   7.293  0.8573 -0.2664 -0.6029
   30MOL   H192 9530   4.255   2.331   7.108 -0.8890 -0.4451  0.5858
   30MOL   H193 9531   4.165   2.176   7.093 -1.3675  0.4248  1.7665
   30MOL   C194 9532   4.295   2.242   6.925  0.1854 -0.5038 -0.4504
   30MOL   C195 9533   4.365   2.373   6.887  0.2114 -0.1702  0.0013
   30MOL   C196 9534   4.318   2.451   6.783  0.5409 -0.3411 -0.2318
   30MOL   C197 9535   4.377   2.570   6.752  0.3228  0.7821 -0.3635
   30MOL  Cl198 9536   4.320   2.649   6.613 -0.3271 -0.5086 -0.1594
   30MOL   C199 9537   4.479   2.629   6.826  0.2501 -0.1237  0.0747
   30MOL   C200 9538   4.528   2.557   6.938 -0.0517  0.6040 -0.3375
   30MOL   C201 9539   4.469   2.436   6.964  0.5571  0.8783 -0.6704
   30MOL   C202 9540   4.397   2.125   6.950  0.1226  0.4110 -0.7261
   30MOL   H203 9541   4.238   2.209   6.839 -0.6659 -2.8947  0.9689
   30MOL   H204 9542   4.238   2.408   6.723 -0.1982 -1.3448  1.4517
   30MOL   H205 9543   4.525   2.725   6.805  0.4422 -0.6059 -1.8638
   30MOL   H206 9544   4.606   2.597   7.000 -1.2989  0.6398  1.2447
   30MOL   H207 9545   4.506   2.378   7.047 -1.7401 -1.8770 -1.4678
   30MOL   H208 9546   4.449   2.146   7.043 -0.1265  0.3321 -0.5694
   30MOL   H209 9547   4.333   2.038   6.968  0.7199  0.1072 -0.0671
   30MOL   C210 9548   4.501   2.102   6.841 -0.1124  0.1664 -0.5659
   30MOL   C211 9549   4.643   2.097   6.904  0.0444 -0.4069  0.4911
   30MOL   C212 9550   4.676   1.994   6.995  0.2068  0.2640  0.4280
   30MOL   C213 9551   4.807   1.966   7.034 -0.4530  0.5498  1.5218
   30MOL  Cl214 9552   4.839   1.841   7.140 -0.0558  0.2193  0.3015
   30MOL   C215 9553   4.922   2.035   6.971 -0.0614 -0.2921 -0.1370
   30MOL   C216 9554   4.890   2.149   6.896  0.5443  0.4324 -0.1751
   30MOL   C217 9555   4.754   2.176   6.856 -0.2188 -0.6773  0.1489
   30MOL   C218 9556   4.474   1.971   6.753 -0.1454  0.0461 -0.4588
   30MOL   H219 9557   4.505   2.194   6.782 -2.4361 -1.1001 -2.7584
   30MOL   H220 9558   4.602   1.928   7.037  0.2466  0.4210  0.7398
   30MOL   H221 9559   5.026   2.010   6.986  0.4295  0.8725 -1.4411
   30MOL   H222 9560   4.975   2.208   6.863 -0.3525  1.3323 -0.9127
   30MOL   H223 9561   4.727   2.262   6.797 -2.9424 -1.8386 -0.3825
   30MOL   H224 9562   4.556   1.947   6.685 -0.5556 -0.5263 -0.7473
   30MOL   H225 9563   4.474   1.880   6.813  0.0232 -0.1553 -0.7634
   30MOL   C226 9564   4.343   1.970   6.669  0.0117 -0.4136  0.5321
   30MOL   C227 9565   4.348   2.072   6.555 -0.2473 -0.4616  0.0456
   30MOL   C228 9566   4.436   2.048   6.442  0.3166 -0.6887 -0.4545
   30MOL   C229 9567   4.431   2.138   6.337  0.8347  0.5884 -0.5550
   30MOL  Cl230 9568   4.539   2.100   6.205  0.0390  0.0335 -0.3173
   30MOL   C231 9569   4.337   2.247   6.336 -0.3567  0.3053 -0.5446
   30MOL   C232 9570   4.238   2.255   6.437 -0.3883 -0.2033  0.0520
   30MOL   C233 9571   4.247   2.174   6.555  0.0883  0.1940  0.3673
   30MOL   C234 9572   4.304   1.824   6.612 -0.2869 -0.1702  0.5721
   30MOL   H235 9573   4.270   2.002   6.742  1.6419 -0.3720  2.1854
   30MOL   H236 9574   4.510   1.969   6.437  0.1716 -0.7347 -1.9661
   30MOL   H237 9575   4.337   2.299   6.241  1.1799  3.9844  1.3843
   30MOL   H238 9576   4.172   2.340   6.429  1.2175  1.3045  2.1540
   30MOL   H239 9577   4.179   2.196   6.636  1.5766  1.1245  1.3732
   30MOL   H240 9578   4.257   1.856   6.519 -1.4958 -0.6552  1.0029
   30MOL   H241 9579   4.399   1.782   6.580  0.1406 -0.6523  2.4468
   30MOL   C242 9580   4.209   1.734   6.693 -0.4591 -0.6525 -0.2166
   30MOL   C243 9581   4.093   1.814   6.747 -0.1476  0.4836 -0.6907
   30MOL   C244 9582   4.074   1.823   6.888  0.5350  0.0612  0.1811
   30MOL   C245 9583   3.956   1.876   6.927  1.0849 -0.1313 -0.3741
   30MOL  Cl246 9584   3.910   1.875   7.094  0.2804  0.7693  0.1019
   30MOL   C247 9585   3.852   1.920   6.841 -0.0398  0.1773 -0.0178
   30MOL   C248 9586   3.885   1.921   6.707  0.0199 -0.4219  0.7924
   30MOL   C249 9587   4.003   1.870   6.657  0.0741  0.9880  0.5053
   30MOL   C250 9588   4.169   1.607   6.615  0.3121  0.2000  0.0303
   30MOL   H251 9589   4.262   1.697   6.781 -0.0512 -3.6914 -1.6424
   30MOL   H252 9590   4.136   1.772   6.961  0.5664 -0.9198 -0.5122
   30MOL   H253 9591   3.758   1.965   6.869 -0.7350 -0.9165 -0.5678
   30MOL   H254 9592   3.825   1.960   6.626  1.7490 -0.5485 -0.5933
   30MOL   H255 9593   4.021   1.860   6.551  0.2144  2.6468  0.3593
   30MOL   H256 9594   4.108   1.640   6.531  0.4789  1.5318  0.4128
   30MOL   H257 9595   4.258   1.552   6.584  0.8587  0.5474  0.9536
   30MOL   C258 9596   4.078   1.516   6.693  0.1034 -0.2507 -0.2230
   30MOL   C259 9597   4.026   1.414   6.592  0.0352 -1.0539  0.1463
   30MOL   C260 9598   4.101   1.295   6.561 -0.0553  1.2310  0.5283
   30MOL   C261 9599   4.052   1.213   6.459 -0.0169  0.8038 -0.6031
   30MOL  Cl262 9600   4.152   1.080   6.409 -0.4029  0.4683 -0.3999
   30MOL   C263 9601   3.934   1.237   6.394  0.0577  0.8151  0.4309
   30MOL   C264 9602   3.852   1.341   6.433  0.5483 -1.3184 -0.4649
   30MOL   C265 9603   3.893   1.433   6.535  0.5638 -0.7683  0.2335
   30MOL   C266 9604   4.139   1.453   6.816  0.2408 -0.0650  0.5309
   30MOL   H267 9605   3.988   1.565   6.729  0.0652  0.5854 -1.4386
   30MOL   H268 9606   4.198   1.271   6.602 -1.2690 -1.5627  1.8828
   30MOL   H269 9607   3.895   1.175   6.315 -2.1493 -0.0741  2.1582
   30MOL   H270 9608   3.756   1.349   6.384  0.7037  0.0762 -0.5365
   30MOL   H271 9609   3.826   1.510   6.569  0.5574 -0.8295  0.3573
   30MOL   H272 9610   4.233   1.412   6.777 -0.4349  0.8245 -2.1661
   30MOL   H273 9611   4.180   1.529   6.882 -1.4002  2.0742 -0.8579
   30MOL   C274 9612   4.055   1.352   6.899 -0.1354  0.3455  0.2956
   30MOL   C275 9613   4.147   1.249   6.961 -0.0089 -0.3768 -0.4251
   30MOL   C276 9614   4.243   1.286   7.060 -0.0566  0.3511  0.1476
   30MOL   C277 9615   4.329   1.193   7.124  0.3991 -0.7381  0.1735
   30MOL  Cl278 9616   4.448   1.252   7.243  0.8118 -0.3136 -0.1443
   30MOL   C279 9617   4.307   1.059   7.097  0.2961  0.2396 -0.1797
   30MOL   C280 9618   4.205   1.018   7.001 -0.6602  0.0361  1.3058
   30MOL   C281 9619   4.128   1.117   6.930 -0.2131 -0.2132  0.4081
   30MOL   C282 9620   3.981   1.436   7.004  0.4706  0.1958  1.1856
   30MOL   H283 9621   3.978   1.306   6.838 -0.0488 -1.2418  1.3538
   30MOL   H284 9622   4.257   1.390   7.083 -3.5886  1.2262 -1.2658
   30MOL   H285 9623   4.367   0.989   7.152  0.6397  0.3315 -0.4360
   30MOL   H286 9624   4.186   0.914   6.983  2.5716  0.0758 -3.2094
   30MOL   H287 9625   4.052   1.099   6.855 -0.6776  0.0552  0.8120
   30MOL   H288 9626   4.044   1.441   7.092  0.9953 -0.4221  0.8529
   30MOL   H289 9627   3.968   1.536   6.962 -0.0505 -0.0027  0.8648
   30MOL   C290 9628   3.839   1.386   7.043  0.0841 -0.1132  0.7026
   30MOL   C291 9629   3.805   1.434   7.182  0.8745 -0.0570  0.6104
   30MOL   C292 9630   3.789   1.568   7.221  0.4353 -0.3752  0.0556
   30MOL   C293 9631   3.758   1.600   7.359  0.2494 -0.8800 -0.6532
   30MOL  Cl294 9632   3.746   1.764   7.418  0.1932 -0.3342  0.5354
   30MOL   C295 9633   3.756   1.499   7.456 -0.0858 -0.6888  0.1624
   30MOL   C296 9634   3.757   1.364   7.415  0.6016 -0.1463  0.5453
   30MOL   C297 9635   3.783   1.333   7.275  0.1314  0.4589 -0.6877
   30MOL   C298 9636   3.725   1.421   6.942  0.2629  0.2810  0.0137
   30MOL   H299 9637   3.855   1.279   7.056 -1.5448 -0.2950  1.3341
   30MOL   H300 9638   3.804   1.648   7.150 -0.8872  0.4582  0.6893
   30MOL   H301 9639   3.751   1.526   7.560  1.7550  1.4411 -0.2480
   30MOL   H302 9640   3.738   1.292   7.493  2.7384 -0.3779  0.8966
   30MOL   H303 9641   3.779   1.228   7.247  0.2330 -0.1908  1.6228
   30MOL   H304 9642   3.714   1.530   6.943  0.0013  0.2482  1.1005
   30MOL   H305 9643   3.764   1.402   6.842 -0.2816  1.1865 -0.3814
   30MOL   C306 9644   3.595   1.331   6.950 -0.1445  0.5114  0.0091
   30MOL   C307 9645   3.476   1.399   6.888  0.4546  0.4803  1.1263
   30MOL   C308 9646   3.354   1.413   6.966 -0.2836  0.0268  0.6958
   30MOL   C309 9647   3.248   1.489   6.913  0.3453  0.6929  0.4001
   30MOL  Cl310 9648   3.106   1.518   6.998 -0.0408  0.0597 -0.3463
   30MOL   C311 9649   3.263   1.550   6.787 -0.4337  0.4267 -0.8068
   30MOL   C312 9650   3.382   1.534   6.712  0.0101  0.7060  0.0232
   30MOL   C313 9651   3.484   1.454   6.761 -0.2984 -0.5709 -0.3359
   30MOL   C314 9652   3.615   1.193   6.887  0.4193 -0.5613  0.6497
   30MOL   H315 9653   3.572   1.317   7.055 -0.5098  1.5792  0.0740
   30MOL   H316 9654   3.359   1.372   7.066  1.5062  0.2047  0.6966
   30MOL   H317 9655   3.179   1.611   6.757 -0.4495  1.7993  1.8035
   30MOL   H318 9656   3.378   1.579   6.614  0.1129  2.0114  0.6105
   30MOL   H319 9657   3.572   1.443   6.698 -0.4130 -2.8214 -0.1657
   30MOL   H320 9658   3.623   1.179   6.780 -1.4967 -0.2461  0.4451
   30MOL   H321 9659   3.707   1.148   6.925  0.3518  1.0086  2.7724
   30MOL   H322 9660   3.534   1.125   6.913  0.1400 -0.7809 -0.7772
   31MOL     C1 9661   2.640   8.153   5.843  0.1471 -0.3315 -0.1380
   31MOL     C2 9662   2.653   8.228   5.980  0.0849  0.3373 -0.9548
   31MOL     C3 9663   2.673   8.367   5.987  0.1105 -0.2281 -0.2443
   31MOL     C4 9664   2.661   0.003   6.109 -0.4348  0.1532  0.9360
   31MOL    Cl5 9665   2.672   0.174   6.106  0.1804  0.3140 -0.1094
   31MOL     C6 9666   2.642   8.370   6.227 -0.2873  0.4554  0.6803
   31MOL     C7 9667   2.622   8.227   6.223  0.1922 -0.0643 -0.0493
   31MOL     C8 9668   2.625   8.160   6.103 -0.1736  0.3249  0.0482
   31MOL     C9 9669   2.772   8.113   5.773  0.2008  0.0775  0.3420
   31MOL    H10 9670   2.588   8.219   5.774  0.3438  1.3964  1.3320
   31MOL    H11 9671   2.683   8.425   5.896  0.0841 -0.5470 -0.4530
   31MOL    H12 9672   2.648   8.427   6.319 -0.3987  4.1328 -1.5092
   31MOL    H13 9673   2.603   8.180   6.319  1.0249  0.9926  0.6482
   31MOL    H14 9674   2.606   8.054   6.102  0.2525  0.2598 -1.3079
   31MOL    H15 9675   2.837   8.200   5.781  0.5009 -0.1095 -0.0729
   31MOL    H16 9676   2.826   8.043   5.838 -1.1818 -0.3214  1.0843
   31MOL    H17 9677   2.580   8.064   5.863  2.3457 -1.8353 -0.0300
   31MOL    C18 9678   2.767   8.046   5.632 -0.0705 -0.1155 -0.2069
   31MOL    C19 9679   2.708   8.140   5.534  0.0085  0.5801 -0.9632
   31MOL    C20 9680   2.761   8.272   5.525 -0.5737 -0.0494 -0.6537
   31MOL    C21 9681   2.697   8.355   5.426 -0.0534  0.9848 -0.4092
   31MOL   Cl22 9682   2.749   0.081   5.405 -0.0100  0.2374 -0.0812
   31MOL    C23 9683   2.595   8.309   5.338 -0.1052  0.2236 -0.5595
   31MOL    C24 9684   2.547   8.177   5.359  0.4781 -0.6389  0.0926
   31MOL    C25 9685   2.605   8.094   5.453 -0.1872  0.0472 -0.1515
   31MOL    C26 9686   2.903   7.998   5.587 -0.4466 -0.6543 -0.1758
   31MOL    H27 9687   2.703   7.958   5.633  0.0156 -0.1892  1.6123
   31MOL    H28 9688   2.838   8.308   5.591  0.4148 -1.7621 -0.8474
   31MOL    H29 9689   2.553   8.374   5.262 -1.2438 -0.7230 -0.7586
   31MOL    H30 9690   2.457   8.150   5.306 -0.7277 -1.3766  2.4366
   31MOL    H31 9691   2.561   7.996   5.465 -2.7210  0.8111 -2.7229
   31MOL    H32 9692   2.908   7.997   5.478 -0.4600  0.4844 -0.1908
   31MOL    H33 9693   2.977   8.078   5.591  0.6497 -1.5708 -1.5685
   31MOL    C34 9694   2.965   7.882   5.659  0.1895  0.5048  0.2918
   31MOL    C35 9695   2.872   7.753   5.645  0.7633 -0.0631  0.3783
   31MOL    C36 9696   2.846   7.698   5.518 -0.2359  1.1018 -0.2337
   31MOL    C37 9697   2.760   7.592   5.500 -0.1750  0.7655  0.0014
   31MOL   Cl38 9698   2.736   7.538   5.344  0.0661 -0.1065 -0.2232
   31MOL    C39 9699   2.712   7.529   5.613 -0.2872  0.3107 -0.3425
   31MOL    C40 9700   2.736   7.581   5.742  0.0558 -0.5002  0.2278
   31MOL    C41 9701   2.809   7.699   5.758  0.5084  0.6023 -1.3252
   31MOL    C42 9702   3.112   7.850   5.631  0.2500 -0.2958  0.0423
   31MOL    H43 9703   2.959   7.903   5.766 -0.1583  1.1985  0.1327
   31MOL    H44 9704   2.898   7.734   5.430 -0.7287  2.5635  0.0704
   31MOL    H45 9705   2.648   7.442   5.601 -1.7103  1.1269  1.0169
   31MOL    H46 9706   2.694   7.536   5.830  2.1004 -1.3055  0.8259
   31MOL    H47 9707   2.839   7.730   5.857 -0.7237 -1.9958 -0.0938
   31MOL    H48 9708   3.144   7.757   5.678  0.1303  0.1940  1.1149
   31MOL    H49 9709   3.128   7.837   5.524 -0.7455 -1.5045  0.0309
   31MOL    C50 9710   3.215   7.958   5.683  0.0833 -0.1419  0.0051
   31MOL    C51 9711   3.195   7.983   5.829 -0.2280 -0.0399 -1.3485
   31MOL    C52 9712   3.125   8.099   5.876 -0.2614 -0.3494  0.5666
   31MOL    C53 9713   3.111   8.120   6.012 -0.2995 -0.9811 -0.4303
   31MOL   Cl54 9714   3.054   8.277   6.063  0.1961  0.3083 -0.2175
   31MOL    C55 9715   3.140   8.018   6.104  0.0124  0.5873 -0.4879
   31MOL    C56 9716   3.204   7.897   6.063 -0.2711 -0.0437  0.4018
   31MOL    C57 9717   3.229   7.882   5.923 -0.3850 -0.7727  0.5729
   31MOL    C58 9718   3.365   7.942   5.660  0.2606  0.2473  0.2585
   31MOL    H59 9719   3.197   8.055   5.637 -0.8033  0.3255  1.3188
   31MOL    H60 9720   3.095   8.176   5.806  1.9170 -0.5495 -0.6201
   31MOL    H61 9721   3.118   8.036   6.209 -3.1970  0.5440 -1.0944
   31MOL    H62 9722   3.232   7.833   6.145 -0.7427 -1.7630 -0.7510
   31MOL    H63 9723   3.269   7.786   5.893 -2.5677 -1.2279 -1.0130
   31MOL    H64 9724   3.421   8.026   5.700 -0.3288  1.3340 -1.1545
   31MOL    H65 9725   3.400   7.856   5.717 -0.8008  0.6119  1.4882
   31MOL    C66 9726   3.414   7.901   5.518  0.0867  0.3674  0.2282
   31MOL    C67 9727   3.389   8.006   5.409 -0.0585  0.3766 -0.0845
   31MOL    C68 9728   3.333   7.965   5.283  0.1759  0.5519  0.4042
   31MOL    C69 9729   3.331   8.049   5.169 -0.0276 -0.3810 -0.3993
   31MOL   Cl70 9730   3.279   7.988   5.015  0.1757 -0.0867  0.0736
   31MOL    C71 9731   3.374   8.185   5.192 -0.3116  0.5763  0.3637
   31MOL    C72 9732   3.433   8.218   5.308  0.6052 -0.7357 -0.1843
   31MOL    C73 9733   3.434   8.136   5.422 -0.6455 -0.4470 -0.4565
   31MOL    C74 9734   3.562   7.843   5.513 -0.6909  0.1114  0.0894
   31MOL    H75 9735   3.352   7.813   5.499 -1.3226  1.5605 -0.8252
   31MOL    H76 9736   3.296   7.866   5.263 -2.6659  1.8077 -0.9019
   31MOL    H77 9737   3.355   8.261   5.117 -0.7759 -0.8759 -1.0230
   31MOL    H78 9738   3.469   8.319   5.321 -1.5062 -0.3892  3.9464
   31MOL    H79 9739   3.483   8.164   5.514 -0.7588  1.1735 -0.8895
   31MOL    H80 9740   3.585   7.831   5.408  2.6271  0.5244  0.7030
   31MOL    H81 9741   3.630   7.912   5.564 -1.3672  0.0250  1.1358
   31MOL    C82 9742   3.590   7.715   5.587  0.0746  0.6661  0.5275
   31MOL    C83 9743   3.478   7.613   5.577  0.5775 -0.3565 -0.2643
   31MOL    C84 9744   3.451   7.546   5.455 -0.2658 -0.2052  0.7482
   31MOL    C85 9745   3.339   7.470   5.443  0.5579  0.2001 -0.4007
   31MOL   Cl86 9746   3.309   7.399   5.292 -0.0326 -0.0766  0.1647
   31MOL    C87 9747   3.258   7.441   5.552  0.4158  0.0033 -0.0863
   31MOL    C88 9748   3.288   7.503   5.675 -0.5246  0.4993 -0.2263
   31MOL    C89 9749   3.392   7.591   5.685  0.0215 -0.2215  0.1154
   31MOL    C90 9750   3.725   7.652   5.541  0.6139 -0.9127 -0.0714
   31MOL    H91 9751   3.602   7.749   5.690 -0.5118  1.3048  0.3890
   31MOL    H92 9752   3.505   7.562   5.362 -1.3389  0.1647  0.1770
   31MOL    H93 9753   3.172   7.376   5.550 -0.8368  1.5999  0.4728
   31MOL    H94 9754   3.213   7.498   5.753  1.3161  0.9753  1.6328
   31MOL    H95 9755   3.411   7.642   5.778  0.2138 -0.4844  0.2181
   31MOL    H96 9756   3.718   7.548   5.573  0.4472  0.0237  3.1287
   31MOL    H97 9757   3.727   7.642   5.432  2.3253  1.3654 -0.2798
   31MOL    C98 9758   3.846   7.725   5.592 -0.4179  1.1681  0.4554
   31MOL    C99 9759   3.881   7.672   5.727  0.3163  0.1349 -0.4137
   31MOL   C100 9760   3.940   7.546   5.744  0.4669 -0.5149 -0.0536
   31MOL   C101 9761   3.950   7.487   5.869 -0.1595  0.7094  0.1947
   31MOL  Cl102 9762   4.028   7.332   5.902 -0.2932 -0.0105  0.0377
   31MOL   C103 9763   3.901   7.552   5.981  0.0685 -0.2918 -0.2860
   31MOL   C104 9764   3.848   7.682   5.965 -0.5387 -0.4059 -0.5450
   31MOL   C105 9765   3.834   7.737   5.839 -0.4096  0.4727 -0.2876
   31MOL   C106 9766   3.965   7.722   5.492  0.8216  0.0219 -0.6175
   31MOL   H107 9767   3.818   7.829   5.604 -3.4134  0.7547 -2.1993
   31MOL   H108 9768   3.973   7.485   5.662 -0.1367 -1.3684  0.3343
   31MOL   H109 9769   3.909   7.494   6.071  2.2734 -2.8094 -2.0203
   31MOL   H110 9770   3.814   7.735   6.053 -1.3408 -1.6887 -0.0681
   31MOL   H111 9771   3.772   7.825   5.828 -0.0891  0.9034  1.1515
   31MOL   H112 9772   4.054   7.750   5.547 -0.6829  1.3119  1.2607
   31MOL   H113 9773   3.989   7.621   5.459  2.8293  0.2255  0.1718
   31MOL   C114 9774   3.939   7.817   5.366  0.1268  0.4154  0.4891
   31MOL   C115 9775   3.974   7.961   5.396 -0.5634 -0.1201 -0.5681
   31MOL   C116 9776   3.881   8.061   5.367 -0.0243  0.7225  0.5389
   31MOL   C117 9777   3.905   8.200   5.395  0.5476  0.1712 -0.0188
   31MOL  Cl118 9778   3.785   8.327   5.359  0.1005 -0.1318 -0.0209
   31MOL   C119 9779   4.028   8.231   5.448  0.0788 -0.4126  0.3511
   31MOL   C120 9780   4.123   8.131   5.475  0.0108  0.0181  0.3080
   31MOL   C121 9781   4.100   7.997   5.450  0.9004  0.1651  0.3586
   31MOL   C122 9782   4.009   7.763   5.235  0.3983 -0.0014  0.0327
   31MOL   H123 9783   3.832   7.822   5.348  0.0241 -1.4968  0.4358
   31MOL   H124 9784   3.791   8.039   5.312  1.6503  0.4648 -2.2401
   31MOL   H125 9785   4.054   8.332   5.475  1.4051 -0.3827 -0.9872
   31MOL   H126 9786   4.219   8.152   5.520 -0.2968  0.0137  0.9760
   31MOL   H127 9787   4.170   7.921   5.482 -0.3530 -0.6102  1.3387
   31MOL   H128 9788   4.118   7.771   5.241  0.6187 -2.7145  0.2179
   31MOL   H129 9789   3.986   7.657   5.235 -0.1395  0.0815  3.0143
   31MOL   C130 9790   3.966   7.823   5.102 -0.3743  0.8601 -0.2059
   31MOL   C131 9791   4.068   7.786   4.999 -0.7370 -0.1985  0.2926
   31MOL   C132 9792   4.076   7.661   4.930  0.4033  0.2409 -0.0996
   31MOL   C133 9793   4.181   7.620   4.846  0.1537 -0.8197  0.0409
   31MOL  Cl134 9794   4.192   7.467   4.765  0.2886 -0.1757 -0.1929
   31MOL   C135 9795   4.289   7.713   4.825  0.8362 -0.2445 -0.4866
   31MOL   C136 9796   4.284   7.841   4.885  0.5664 -0.8154 -0.0015
   31MOL   C137 9797   4.174   7.882   4.970 -0.3854  0.4646 -0.0026
   31MOL   C138 9798   3.823   7.778   5.064 -0.3491  1.0032 -0.0415
   31MOL   H139 9799   3.972   7.931   5.109  0.9225  0.7899 -0.1993
   31MOL   H140 9800   3.998   7.588   4.948  0.8327  0.3571  2.3607
   31MOL   H141 9801   4.374   7.690   4.761  1.0220  2.6849 -1.3608
   31MOL   H142 9802   4.359   7.919   4.877  0.8131 -0.7348  2.5425
   31MOL   H143 9803   4.162   7.984   5.003 -0.5205  0.6152 -0.5116
   31MOL   H144 9804   3.819   7.669   5.069 -0.8188  0.9701 -1.0715
   31MOL   H145 9805   3.750   7.812   5.138  0.8378  0.1064  1.5791
   31MOL   C146 9806   3.770   7.834   4.923 -0.1604 -0.6023 -0.6046
   31MOL   C147 9807   3.640   7.762   4.878 -0.0211 -0.8765 -0.3151
   31MOL   C148 9808   3.629   7.711   4.744  0.0729 -0.2237 -0.5668
   31MOL   C149 9809   3.520   7.633   4.705 -0.5979  0.5493 -0.8363
   31MOL  Cl150 9810   3.528   7.553   4.555  0.4156 -0.1492 -0.0519
   31MOL   C151 9811   3.412   7.622   4.789  0.7366 -0.7965 -0.2454
   31MOL   C152 9812   3.417   7.665   4.922  0.3331 -0.4868 -0.8058
   31MOL   C153 9813   3.532   7.736   4.965 -0.0070  0.0985  0.0581
   31MOL   C154 9814   3.752   7.992   4.931  0.3973 -0.6194 -0.3729
   31MOL   H155 9815   3.850   7.808   4.853  0.2224  0.1973 -0.4737
   31MOL   H156 9816   3.715   7.727   4.681 -0.5770  0.1593 -1.3826
   31MOL   H157 9817   3.331   7.559   4.756  2.2258 -1.9941 -1.7009
   31MOL   H158 9818   3.340   7.654   4.997 -0.1314  0.9620 -1.0638
   31MOL   H159 9819   3.539   7.785   5.062  1.2482  0.1981 -0.0752
   31MOL   H160 9820   3.659   8.004   4.986  1.1174  0.0275  0.7160
   31MOL   H161 9821   3.821   8.045   4.997 -0.2779  1.0798 -1.0003
   31MOL   C162 9822   3.749   8.066   4.785 -0.0793  0.8491  0.4577
   31MOL   C163 9823   3.719   8.207   4.816  0.1545 -0.0582 -0.2450
   31MOL   C164 9824   3.797   8.302   4.896  1.0076  0.6695 -0.4009
   31MOL   C165 9825   3.749   8.430   4.924 -0.5131  0.2383 -0.1529
   31MOL  Cl166 9826   3.849   0.097   5.030  0.1996  0.0068  0.6493
   31MOL   C167 9827   3.630   0.041   4.863  1.0119 -0.4795  0.5019
   31MOL   C168 9828   3.565   8.387   4.778 -0.2675 -0.2560 -0.3509
   31MOL   C169 9829   3.610   8.254   4.748  0.4913  0.4640 -0.0744
   31MOL   C170 9830   3.887   8.051   4.710  0.2536 -0.1933  0.3939
   31MOL   H171 9831   3.669   8.024   4.723  1.7024  0.0152 -1.3381
   31MOL   H172 9832   3.889   8.263   4.939  0.7808 -0.3762 -0.8445
   31MOL   H173 9833   3.589   0.140   4.875  1.6973 -0.0058 -1.0130
   31MOL   H174 9834   3.476   8.423   4.728  0.6829  1.2670 -0.9979
   31MOL   H175 9835   3.543   8.202   4.682 -0.3631  0.2320  0.9510
   31MOL   H176 9836   3.960   8.097   4.775 -1.5304  1.6029  1.1829
   31MOL   H177 9837   3.914   7.945   4.701  0.2530 -0.1310 -0.3333
   31MOL   C178 9838   3.887   8.124   4.574  0.1735  0.0084  0.3659
   31MOL   C179 9839   4.031   8.131   4.524  0.1486  0.2377  0.5296
   31MOL   C180 9840   4.063   8.221   4.415 -0.0211  0.2585 -0.6171
   31MOL   C181 9841   4.189   8.223   4.357 -0.8341 -0.8709 -0.1788
   31MOL  Cl182 9842   4.214   8.325   4.216 -0.4171  0.2331 -0.2694
   31MOL   C183 9843   4.300   8.164   4.422 -0.1959 -0.3502  0.1951
   31MOL   C184 9844   4.276   8.086   4.540  0.5272 -0.3158 -0.1105
   31MOL   C185 9845   4.142   8.068   4.589 -0.7976  0.0399 -0.4290
   31MOL   C186 9846   3.787   8.071   4.470 -0.0842  1.4233  0.3686
   31MOL   H187 9847   3.854   8.226   4.598  0.5812  0.1446  0.3515
   31MOL   H188 9848   3.997   8.287   4.361 -0.5814  0.7023  0.5938
   31MOL   H189 9849   4.403   8.189   4.402 -0.0673  0.8080  2.1124
   31MOL   H190 9850   4.363   8.063   4.600  2.0509  1.9916 -1.3342
   31MOL   H191 9851   4.130   8.003   4.675 -3.5269 -0.9684 -1.5008
   31MOL   H192 9852   3.696   8.029   4.512  0.5094  0.7930  1.0410
   31MOL   H193 9853   3.758   8.166   4.424 -1.4375  1.1905  0.7289
   31MOL   C194 9854   3.836   7.985   4.355 -0.8106  0.0539  0.2834
   31MOL   C195 9855   3.900   7.858   4.393 -0.1134  0.2478  0.4260
   31MOL   C196 9856   4.043   7.835   4.382 -0.2002  0.3948 -0.5236
   31MOL   C197 9857   4.105   7.714   4.426 -0.5546  0.4252  0.0808
   31MOL  Cl198 9858   4.275   7.684   4.415 -0.2031 -0.1453 -0.3406
   31MOL   C199 9859   4.032   7.613   4.484 -0.1995 -0.0630  0.2773
   31MOL   C200 9860   3.887   7.616   4.468 -0.4598 -0.2088 -0.1065
   31MOL   C201 9861   3.831   7.740   4.427  0.2957 -0.0489 -0.0942
   31MOL   C202 9862   3.725   7.958   4.250 -0.4635 -0.4721 -0.7412
   31MOL   H203 9863   3.908   8.046   4.299 -1.0735 -2.2815 -2.7177
   31MOL   H204 9864   4.098   7.923   4.351 -3.0275  1.0519 -4.0847
   31MOL   H205 9865   4.074   7.519   4.517  1.7118  1.1240  1.3027
   31MOL   H206 9866   3.832   7.535   4.512  0.2927  0.0757  1.4041
   31MOL   H207 9867   3.723   7.733   4.425  0.3831 -1.8648  0.7944
   31MOL   H208 9868   3.760   7.900   4.165  1.3711  1.8882 -1.6429
   31MOL   H209 9869   3.643   7.906   4.300  1.6574 -1.4608  1.8544
   31MOL   C210 9870   3.669   8.080   4.171 -0.4031 -0.3334 -0.1201
   31MOL   C211 9871   3.770   8.178   4.116  0.5835  0.5727 -0.2810
   31MOL   C212 9872   3.790   8.302   4.185  0.0335  0.5703 -0.9388
   31MOL   C213 9873   3.884   8.392   4.127 -0.2078 -0.3037 -0.0768
   31MOL  Cl214 9874   3.923   0.105   4.213 -0.1803 -0.4672  0.0349
   31MOL   C215 9875   3.944   8.364   4.006  0.1755  0.0478  0.3711
   31MOL   C216 9876   3.919   8.247   3.937 -0.2439 -0.6731 -0.1990
   31MOL   C217 9877   3.840   8.150   3.997 -0.4834  0.8164  0.2463
   31MOL   C218 9878   3.560   8.039   4.065 -0.5755  0.9655  0.1309
   31MOL   H219 9879   3.608   8.133   4.245  0.3465  1.8871 -1.0650
   31MOL   H220 9880   3.741   8.323   4.279 -0.9019 -1.0842 -1.0377
   31MOL   H221 9881   4.022   8.429   3.968  0.5514 -1.2313 -1.0942
   31MOL   H222 9882   3.986   8.222   3.856  1.5373 -1.2309  1.4002
   31MOL   H223 9883   3.818   8.052   3.958 -1.2553  1.2502 -0.4275
   31MOL   H224 9884   3.518   8.132   4.026 -0.8266  0.1302 -1.6293
   31MOL   H225 9885   3.612   7.979   3.990 -1.5285 -1.0131  1.0085
   31MOL   C226 9886   3.446   7.960   4.126  0.3713 -0.1802 -0.2968
   31MOL   C227 9887   3.381   8.033   4.245 -0.2510  0.0032  0.3775
   31MOL   C228 9888   3.400   7.991   4.377  0.0894 -0.1088 -0.4378
   31MOL   C229 9889   3.330   8.055   4.488  0.1792 -0.0877  0.3534
   31MOL  Cl230 9890   3.352   7.987   4.643 -0.6516 -0.0163 -0.3997
   31MOL   C231 9891   3.241   8.158   4.463  0.2104 -0.8557  0.3378
   31MOL   C232 9892   3.232   8.212   4.333  0.0895 -0.0942 -0.2389
   31MOL   C233 9893   3.300   8.148   4.224 -0.5424  0.4713 -0.0370
   31MOL   C234 9894   3.338   7.920   4.014 -0.1547  0.0131  0.1288
   31MOL   H235 9895   3.487   7.865   4.161  2.4593  0.4735 -0.8651
   31MOL   H236 9896   3.461   7.904   4.398  0.7246  0.4587  0.0982
   31MOL   H237 9897   3.187   8.210   4.541  0.6328  1.3665 -0.7985
   31MOL   H238 9898   3.166   8.296   4.316  1.5951  1.3726  1.0231
   31MOL   H239 9899   3.269   8.199   4.134 -0.8809 -0.6884 -0.6009
   31MOL   H240 9900   3.266   7.852   4.061  0.7417 -1.6718 -0.8627
   31MOL   H241 9901   3.278   8.005   3.982 -0.0268 -0.4869 -1.5106
   31MOL   C242 9902   3.381   7.840   3.885  0.6109 -0.1225  0.1316
   31MOL   C243 9903   3.502   7.750   3.910  0.4061 -0.0260 -0.2076
   31MOL   C244 9904   3.492   7.653   4.014  0.3018  0.1379 -0.2634
   31MOL   C245 9905   3.612   7.583   4.054 -0.0850 -0.3521  0.4394
   31MOL  Cl246 9906   3.604   7.463   4.173  0.1783 -0.0121  0.1036
   31MOL   C247 9907   3.734   7.616   3.999 -0.3445  0.1360 -0.1848
   31MOL   C248 9908   3.739   7.708   3.892  0.0191  0.6130  0.8117
   31MOL   C249 9909   3.626   7.771   3.845 -0.0887  0.0695  0.0826
   31MOL   C250 9910   3.272   7.766   3.820 -0.3312  0.2446  0.5298
   31MOL   H251 9911   3.420   7.912   3.813  0.5165  1.5694  1.7278
   31MOL   H252 9912   3.391   7.628   4.046 -1.6118  3.5040 -3.2237
   31MOL   H253 9913   3.826   7.574   4.036 -1.1436 -0.2146  1.4621
   31MOL   H254 9914   3.834   7.736   3.849  0.1446 -1.5805 -0.4197
   31MOL   H255 9915   3.634   7.847   3.769  0.1539  0.4664  0.5012
   31MOL   H256 9916   3.255   7.679   3.883  0.9721  0.9621  1.9047
   31MOL   H257 9917   3.177   7.820   3.814 -0.8568 -0.8646 -1.7549
   31MOL   C258 9918   3.316   7.718   3.681  0.3015  0.5541 -1.1424
   31MOL   C259 9919   3.289   7.572   3.668  0.4902 -0.0067 -0.4041
   31MOL   C260 9920   3.390   7.478   3.704  0.3274  0.3468  0.1303
   31MOL   C261 9921   3.363   7.336   3.694  0.0169 -0.1937  0.1630
   31MOL  Cl262 9922   3.492   7.220   3.738  0.2416  0.1508  0.6309
   31MOL   C263 9923   3.234   7.289   3.681  0.0104 -0.2403 -0.8663
   31MOL   C264 9924   3.132   7.388   3.658 -0.3909  0.2548  0.7193
   31MOL   C265 9925   3.156   7.527   3.655 -0.2077  0.9543 -0.0229
   31MOL   C266 9926   3.261   7.803   3.569 -0.1461  0.0358  0.4655
   31MOL   H267 9927   3.425   7.719   3.673  0.4322  1.0473  0.5093
   31MOL   H268 9928   3.491   7.513   3.717 -0.1122  1.8256 -0.2826
   31MOL   H269 9929   3.206   7.185   3.682 -1.2231  0.0685 -1.7565
   31MOL   H270 9930   3.032   7.349   3.642 -0.4011  0.4166  0.3901
   31MOL   H271 9931   3.080   7.598   3.625 -0.5532  0.9358  0.7843
   31MOL   H272 9932   3.154   7.785   3.563  0.0757 -1.3368  0.4112
   31MOL   H273 9933   3.272   7.907   3.597  0.7038  0.1235 -0.1719
   31MOL   C274 9934   3.327   7.791   3.428  0.7118 -0.4910  0.0645
   31MOL   C275 9935   3.473   7.808   3.426  0.7621  0.0810  0.0979
   31MOL   C276 9936   3.567   7.702   3.435  0.1194 -0.0423 -0.1270
   31MOL   C277 9937   3.701   7.735   3.431 -0.2880  0.6630 -0.1708
   31MOL  Cl278 9938   3.818   7.616   3.455  0.6552 -0.2318  0.3098
   31MOL   C279 9939   3.746   7.862   3.411 -0.1715 -0.0052 -0.0305
   31MOL   C280 9940   3.653   7.974   3.403  0.1465 -0.2030 -0.6081
   31MOL   C281 9941   3.517   7.942   3.406 -0.0268  0.5969  0.3864
   31MOL   C282 9942   3.291   7.664   3.345 -0.5075  0.3106  0.5687
   31MOL   H283 9943   3.284   7.877   3.377 -0.2329 -1.3647 -0.6385
   31MOL   H284 9944   3.537   7.602   3.460 -3.2697  1.3765  1.8710
   31MOL   H285 9945   3.850   7.890   3.415 -0.2151 -0.1004  2.5536
   31MOL   H286 9946   3.697   8.072   3.391  1.2200 -0.4788  0.8454
   31MOL   H287 9947   3.455   8.029   3.392  0.6160  1.1288  0.8248
   31MOL   H288 9948   3.355   7.653   3.257 -1.7811 -1.6065 -0.1575
   31MOL   H289 9949   3.305   7.584   3.417 -0.8745 -0.1185  0.1714
   31MOL   C290 9950   3.142   7.656   3.308 -0.4199  0.9370 -0.1805
   31MOL   C291 9951   3.094   7.760   3.207 -0.2096  0.7439  0.5340
   31MOL   C292 9952   3.132   7.756   3.069  0.2126 -0.4388 -0.1205
   31MOL   C293 9953   3.090   7.849   2.979 -0.1293  0.1247 -0.2060
   31MOL  Cl294 9954   3.125   7.853   2.812 -0.3126 -0.2071  0.0718
   31MOL   C295 9955   3.018   7.963   3.023  0.1551  0.0770 -0.5917
   31MOL   C296 9956   2.982   7.966   3.163 -0.5585  0.0306 -0.7337
   31MOL   C297 9957   3.009   7.863   3.249 -0.3789  0.3045 -0.3086
   31MOL   C298 9958   3.111   7.508   3.263 -0.2327  0.0523  0.1908
   31MOL   H299 9959   3.081   7.678   3.396  0.1487  3.0680 -0.2890
   31MOL   H300 9960   3.184   7.667   3.036  1.9308 -0.1639  1.7388
   31MOL   H301 9961   3.003   8.046   2.955 -3.9385 -0.3436 -0.3203
   31MOL   H302 9962   2.916   8.038   3.209  0.1858  2.5219 -3.4560
   31MOL   H303 9963   2.985   7.865   3.355  0.5474  2.1523 -0.1125
   31MOL   H304 9964   3.182   7.489   3.183 -1.4592  0.8677 -1.1257
   31MOL   H305 9965   3.140   7.436   3.340 -2.7531  0.6415  1.7713
   31MOL   C306 9966   2.966   7.472   3.214  0.1737 -0.3282  0.1823
   31MOL   C307 9967   2.950   7.330   3.146 -0.2044 -0.4864 -0.8396
   31MOL   C308 9968   3.004   7.309   3.020  0.0915  0.4882 -0.2180
   31MOL   C309 9969   2.998   7.180   2.967 -0.0925  0.4079  0.1310
   31MOL  Cl310 9970   3.056   7.149   2.814  0.0230 -0.1835 -0.1560
   31MOL   C311 9971   2.942   7.073   3.044  0.3450 -0.5140 -0.0217
   31MOL   C312 9972   2.888   7.095   3.169  0.6521 -0.7874 -0.3500
   31MOL   C313 9973   2.902   7.219   3.224  0.2910  0.5512  0.8660
   31MOL   C314 9974   2.856   7.506   3.319 -0.6345 -0.1936  0.1292
   31MOL   H315 9975   2.941   7.548   3.138  1.2106  1.3253  1.4661
   31MOL   H316 9976   3.049   7.396   2.976 -3.0592  2.7559  0.8714
   31MOL   H317 9977   2.931   6.974   3.002 -1.7088  0.4523 -1.8865
   31MOL   H318 9978   2.845   7.011   3.222  1.1823 -0.3301  0.8124
   31MOL   H319 9979   2.857   7.235   3.321 -2.3654 -0.6109 -0.1267
   31MOL   H320 9980   2.849   7.613   3.335 -1.1958 -0.0679 -0.8770
   31MOL   H321 9981   2.759   7.474   3.280 -0.6529  0.0694 -0.0425
   31MOL   H322 9982   2.881   7.457   3.413  0.0687  0.1331  0.1122
   32MOL     C1 9983   2.842   4.451   5.077 -0.0234 -0.7665  0.2267
   32MOL     C2 9984   2.945   4.413   4.970  0.3983  0.2034  0.0336
   32MOL     C3 9985   2.966   4.504   4.862  0.0099  0.1508  0.5864
   32MOL     C4 9986   3.060   4.468   4.762  0.1145  0.3515 -0.5647
   32MOL    Cl5 9987   3.081   4.567   4.622 -0.1204 -0.0426  0.0684
   32MOL     C6 9988   3.122   4.346   4.770  0.5652 -0.0290  0.4443
   32MOL     C7 9989   3.101   4.261   4.877 -0.1039 -0.0838 -0.3302
   32MOL     C8 9990   3.018   4.295   4.977 -0.2235 -0.4316  0.7939
   32MOL     C9 9991   2.862   4.387   5.220 -0.2611  0.6811  0.9440
   32MOL    H10 9992   2.747   4.410   5.044 -0.2832 -0.5297  0.6881
   32MOL    H11 9993   2.911   4.597   4.860 -1.1848 -0.5109  1.9960
   32MOL    H12 9994   3.184   4.332   4.683 -0.3585  0.7834 -0.3662
   32MOL    H13 9995   3.161   4.173   4.896  0.5790  0.7788  1.6270
   32MOL    H14 9996   3.000   4.219   5.052  0.5072 -0.4456  0.9635
   32MOL    H15 9997   2.843   4.282   5.197 -1.5777  1.4412 -1.5391
   32MOL    H16 9998   2.964   4.408   5.251  0.3512 -3.4968  2.0392
   32MOL    H17 9999   2.843   4.560   5.086  1.8509 -0.8161  0.9596
   32MOL    C1810000   2.766   4.437   5.328 -0.4091  0.4941 -0.0319
   32MOL    C1910001   2.637   4.495   5.269 -0.2719 -0.3319  0.5674
   32MOL    C2010002   2.612   4.635   5.262 -0.2245  0.1635 -0.0031
   32MOL    C2110003   2.493   4.681   5.200  0.6489  0.0308 -0.3484
   32MOL   Cl2210004   2.447   4.852   5.197 -0.2015  0.6114  0.4696
   32MOL    C2310005   2.400   4.588   5.163 -0.8182 -0.6385  0.2147
   32MOL    C2410006   2.418   4.451   5.172 -0.6250  0.4441 -0.5181
   32MOL    C2510007   2.537   4.401   5.226  0.1950 -0.0193 -0.2910
   32MOL    C2610008   2.751   4.337   5.446  0.7171  0.3361 -0.1815
   32MOL    H2710009   2.813   4.529   5.362  2.4428 -0.1753 -1.9556
   32MOL    H2810010   2.682   4.704   5.306 -0.5143  0.5634 -0.1692
   32MOL    H2910011   2.308   4.629   5.123  0.3080  1.6615 -0.1415
   32MOL    H3010012   2.346   4.375   5.143 -0.0079 -0.6961  0.8802
   32MOL    H3110013   2.558   4.296   5.239 -1.8963 -0.3164  1.0433
   32MOL    H3210014   2.731   4.240   5.400  0.8804  0.7349 -1.1115
   32MOL    H3310015   2.851   4.333   5.490  0.1419 -0.9065  1.0518
   32MOL    C3410016   2.649   4.381   5.549 -0.1512 -0.3007  0.4936
   32MOL    C3510017   2.604   4.266   5.630  0.4812 -0.5956 -0.1960
   32MOL    C3610018   2.470   4.232   5.656  0.1814 -0.1343  0.1305
   32MOL    C3710019   2.433   4.148   5.762 -0.1304 -0.0070  0.0065
   32MOL   Cl3810020   2.270   4.133   5.806 -0.3707 -0.3014 -0.1342
   32MOL    C3910021   2.533   4.072   5.829 -0.0950 -0.5175  0.0401
   32MOL    C4010022   2.666   4.104   5.805 -0.4916  0.1934 -0.0637
   32MOL    C4110023   2.703   4.198   5.708  0.5094 -0.1081  0.5133
   32MOL    C4210024   2.694   4.507   5.622 -0.1408 -0.5071 -0.4254
   32MOL    H4310025   2.558   4.414   5.496  1.5331  4.7605  0.4519
   32MOL    H4410026   2.390   4.289   5.611  0.7729  0.0700 -0.6556
   32MOL    H4510027   2.508   3.990   5.894 -0.6068 -0.5323 -0.1769
   32MOL    H4610028   2.743   4.063   5.870  0.3888  0.8814 -0.6604
   32MOL    H4710029   2.808   4.219   5.693  0.3471 -0.5203 -1.2913
   32MOL    H4810030   2.784   4.477   5.676 -1.4314 -0.3812  1.8955
   32MOL    H4910031   2.721   4.578   5.544 -1.1596 -1.3519 -1.5495
   32MOL    C5010032   2.602   4.574   5.729  0.0738 -0.2600  0.1970
   32MOL    C5110033   2.456   4.592   5.680 -0.1140 -0.6395  0.4434
   32MOL    C5210034   2.342   4.538   5.739  0.0568 -0.1170  0.2264
   32MOL    C5310035   2.213   4.587   5.710 -0.3937 -0.1211 -0.6371
   32MOL   Cl5410036   2.079   4.516   5.790  0.2859 -0.0516 -0.1615
   32MOL    C5510037   2.197   4.682   5.607 -0.2946 -0.4487 -0.2149
   32MOL    C5610038   2.318   4.726   5.543 -0.0478 -0.0521  0.6314
   32MOL    C5710039   2.442   4.690   5.576  0.1611 -0.2128  0.7070
   32MOL    C5810040   2.626   4.510   5.868  0.2410  0.1286 -0.1787
   32MOL    H5910041   2.641   4.674   5.750 -0.8747 -0.1924  1.7223
   32MOL    H6010042   2.363   4.459   5.810  2.5461 -2.7355 -3.2619
   32MOL    H6110043   2.103   4.723   5.575  0.0610 -0.7322 -1.6382
   32MOL    H6210044   2.311   4.806   5.470 -0.9536 -0.4307  0.3038
   32MOL    H6310045   2.530   4.732   5.529  0.8976 -2.0654  0.3864
   32MOL    H6410046   2.563   4.422   5.857  2.1726 -1.2568 -0.2611
   32MOL    H6510047   2.729   4.481   5.888  0.3774  1.2624  0.8048
   32MOL    C6610048   2.569   4.585   5.990  0.1387  0.4588 -0.2051
   32MOL    C6710049   2.544   4.492   6.111 -0.3598 -0.1334  0.2793
   32MOL    C6810050   2.646   4.441   6.200  0.6460  0.1395  0.2266
   32MOL    C6910051   2.605   4.360   6.306 -0.8156 -0.2003 -0.1915
   32MOL   Cl7010052   2.733   4.273   6.394 -0.5413  0.0442 -0.1497
   32MOL    C7110053   2.470   4.342   6.334  0.0148  0.4976  0.2132
   32MOL    C7210054   2.372   4.391   6.245 -0.0697 -0.9510  0.1637
   32MOL    C7310055   2.411   4.466   6.134  0.6006  0.3202  0.0618
   32MOL    C7410056   2.641   4.721   6.033  0.1439  0.3789  0.1868
   32MOL    H7510057   2.468   4.614   5.961 -0.8457 -2.4122  0.1321
   32MOL    H7610058   2.751   4.444   6.171  0.1485  1.2731 -1.5460
   32MOL    H7710059   2.451   4.288   6.425 -0.5306  0.7820  0.2678
   32MOL    H7810060   2.268   4.367   6.256 -0.1315 -0.3458  0.9785
   32MOL    H7910061   2.333   4.505   6.070  0.9773 -0.7052 -1.0404
   32MOL    H8010062   2.662   4.715   6.140 -0.1419 -1.6342  0.1438
   32MOL    H8110063   2.744   4.723   5.995 -0.0967 -0.7693 -0.5576
   32MOL    C8210064   2.580   4.856   5.983  0.7544 -0.5636  0.7754
   32MOL    C8310065   2.431   4.860   6.028 -0.3097  0.4814  0.1207
   32MOL    C8410066   2.403   4.876   6.171 -0.7248 -0.5709 -0.6363
   32MOL    C8510067   2.267   4.889   6.206  0.1521  0.1380 -0.1162
   32MOL   Cl8610068   2.224   4.896   6.371 -0.3656 -0.0217  0.1891
   32MOL    C8710069   2.165   4.870   6.104  0.0087  0.3015 -0.1889
   32MOL    C8810070   2.197   4.866   5.971 -0.2840 -0.1333  0.5681
   32MOL    C8910071   2.330   4.863   5.931 -0.1363  0.2537  1.0170
   32MOL    C9010072   2.651   4.981   6.027 -0.0098  0.2141  0.3613
   32MOL    H9110073   2.582   4.853   5.875  1.1970  0.4379  0.7570
   32MOL    H9210074   2.482   4.891   6.243 -1.8622  0.9068  0.3259
   32MOL    H9310075   2.060   4.867   6.130 -0.2075 -0.7895 -1.1577
   32MOL    H9410076   2.110   4.850   5.909 -1.5805  0.7637  2.0938
   32MOL    H9510077   2.352   4.877   5.826 -1.1041 -1.2801  0.5923
   32MOL    H9610078   2.650   4.976   6.136  0.7299  4.5538  0.6655
   32MOL    H9710079   2.749   4.983   5.982 -1.3486  2.7035 -2.6310
   32MOL    C9810080   2.580   5.117   5.993 -0.6153 -0.2648  0.4128
   32MOL    C9910081   2.638   5.216   6.102 -0.9256  0.5813  0.3678
   32MOL   C10010082   2.761   5.284   6.093  0.5742 -0.1717 -0.5018
   32MOL   C10110083   2.804   5.383   6.186 -0.4401 -0.2876  0.0831
   32MOL  Cl10210084   2.947   5.474   6.166  0.0761 -0.3172  0.3379
   32MOL   C10310085   2.722   5.405   6.296 -0.2410  0.3416 -0.6016
   32MOL   C10410086   2.599   5.335   6.311  0.7781  0.1472 -0.4744
   32MOL   C10510087   2.566   5.231   6.224  0.1793  0.9976  0.7099
   32MOL   C10610088   2.598   5.177   5.850 -0.9095  0.0311 -0.2880
   32MOL   H10710089   2.475   5.103   6.019  0.0523 -3.2796  1.6511
   32MOL   H10810090   2.819   5.261   6.005 -1.6197 -3.5757 -1.1708
   32MOL   H10910091   2.734   5.491   6.360 -0.9723 -1.2079  1.7092
   32MOL   H11010092   2.536   5.347   6.399  1.6478  0.1595  0.1499
   32MOL   H11110093   2.478   5.171   6.241  0.3819  0.0100 -1.5111
   32MOL   H11210094   2.700   5.158   5.817 -1.0084 -0.1483 -0.4863
   32MOL   H11310095   2.550   5.114   5.775 -0.3590 -0.2028 -0.4424
   32MOL   C11410096   2.552   5.323   5.838  0.6860 -0.2382  0.4852
   32MOL   C11510097   2.660   5.396   5.774  0.6383 -0.0037 -0.4469
   32MOL   C11610098   2.699   5.515   5.852 -0.4205 -0.1881  0.1869
   32MOL   C11710099   2.795   5.599   5.784 -1.2079  0.3282 -0.2626
   32MOL  Cl11810100   2.840   5.755   5.857 -0.1298  0.1193  0.5460
   32MOL   C11910101   2.851   5.569   5.661  0.2531 -0.7923  0.1940
   32MOL   C12010102   2.818   5.448   5.595  0.2110  0.6471 -0.4028
   32MOL   C12110103   2.714   5.367   5.647  0.0470  0.3177 -0.3832
   32MOL   C12210104   2.419   5.328   5.755 -0.1642  0.4853 -0.3679
   32MOL   H12310105   2.526   5.356   5.939  1.6284 -2.4066  1.4700
   32MOL   H12410106   2.667   5.542   5.951 -0.3737 -0.3673  0.2525
   32MOL   H12510107   2.929   5.638   5.633 -1.1046  1.4912  1.7729
   32MOL   H12610108   2.865   5.417   5.503 -0.0999  0.3075 -0.4497
   32MOL   H12710109   2.684   5.282   5.588 -1.2784  0.5668 -0.0854
   32MOL   H12810110   2.410   5.427   5.710 -0.3155  0.1576 -1.0636
   32MOL   H12910111   2.420   5.267   5.665  3.8695 -1.0012  0.5843
   32MOL   C13010112   2.293   5.299   5.843  0.0359  0.5934  0.0139
   32MOL   C13110113   2.289   5.368   5.987  0.3088 -0.7693 -0.6573
   32MOL   C13210114   2.246   5.294   6.099 -0.4848  0.0475  0.4073
   32MOL   C13310115   2.256   5.353   6.227 -0.3920  0.9341  0.0767
   32MOL  Cl13410116   2.217   5.259   6.366 -0.0035 -0.2705  0.4019
   32MOL   C13510117   2.313   5.484   6.244  0.1070  0.4968 -0.2533
   32MOL   C13610118   2.350   5.561   6.130  0.0285  0.2193  0.9107
   32MOL   C13710119   2.329   5.503   6.002 -0.3862  1.0470 -0.1529
   32MOL   C13810120   2.166   5.333   5.755  0.2504 -0.2558 -0.0750
   32MOL   H13910121   2.292   5.191   5.860 -0.3281  0.1954 -2.3466
   32MOL   H14010122   2.203   5.197   6.076 -1.9865  0.9143 -0.4996
   32MOL   H14110123   2.314   5.527   6.343 -0.3813  0.5977 -0.2947
   32MOL   H14210124   2.385   5.662   6.145  0.3717  0.2801 -0.2852
   32MOL   H14310125   2.370   5.559   5.919 -1.6836  1.4823 -0.5034
   32MOL   H14410126   2.178   5.434   5.717  1.8158 -1.1797 -2.1741
   32MOL   H14510127   2.167   5.275   5.662 -0.0168  0.6463 -0.6438
   32MOL   C14610128   2.030   5.322   5.827  0.8844 -0.5813  0.1666
   32MOL   C14710129   1.932   5.386   5.725  0.5840  0.0865 -0.1272
   32MOL   C14810130   1.881   5.510   5.758 -0.2455  0.2909  0.3335
   32MOL   C14910131   1.779   5.575   5.687  0.5629 -0.0080  0.3876
   32MOL  Cl15010132   1.718   5.725   5.741  0.0147  0.5015 -0.5004
   32MOL   C15110133   1.721   5.501   5.580 -0.3559  0.2396  0.4597
   32MOL   C15210134   1.771   5.376   5.538  0.2934 -0.6466  0.0289
   32MOL   C15310135   1.881   5.320   5.607 -0.5184 -0.4621  0.2816
   32MOL   C15410136   1.984   5.171   5.863 -0.8124  0.4798 -0.0696
   32MOL   H15510137   2.027   5.379   5.920  1.6819  0.7772 -0.6329
   32MOL   H15610138   1.928   5.576   5.830  0.4916  0.7704 -0.5756
   32MOL   H15710139   1.635   5.543   5.532  1.5630  1.9729 -1.5801
   32MOL   H15810140   1.721   5.321   5.459  1.1617  1.5734 -2.1125
   32MOL   H15910141   1.926   5.227   5.575 -0.0496  0.1300 -0.7758
   32MOL   H16010142   1.967   5.119   5.769 -0.0850 -0.2454  0.1941
   32MOL   H16110143   2.070   5.119   5.905  0.2306  0.4217 -2.2070
   32MOL   C16210144   1.847   5.153   5.934  0.2927 -0.2390 -0.0343
   32MOL   C16310145   1.743   5.068   5.863 -0.7851  0.0885 -0.0957
   32MOL   C16410146   1.789   4.935   5.821 -0.9328  0.5132  0.1690
   32MOL   C16510147   1.700   4.869   5.726  0.0878  0.4837 -0.1794
   32MOL  Cl16610148   1.745   4.709   5.673  0.1555  0.5853 -0.3698
   32MOL   C16710149   1.578   4.920   5.679 -0.0238 -0.1343  0.5544
   32MOL   C16810150   1.545   5.046   5.726  0.7131  0.5370  0.9312
   32MOL   C16910151   1.619   5.118   5.821 -0.1815  0.1757 -0.2579
   32MOL   C17010152   1.866   5.118   6.089  0.5531 -0.9670  0.1491
   32MOL   H17110153   1.799   5.251   5.938  2.5301  0.9313 -1.3224
   32MOL   H17210154   1.879   4.888   5.858  0.7809  0.6884 -3.5056
   32MOL   H17310155   1.514   4.858   5.617  0.2083 -0.7212  0.8993
   32MOL   H17410156   1.447   5.089   5.710  1.7368  2.2483 -0.8396
   32MOL   H17510157   1.581   5.211   5.861 -0.1664 -0.5327  1.4555
   32MOL   H17610158   1.933   5.031   6.085  1.0928 -0.6197  1.4658
   32MOL   H17710159   1.907   5.200   6.147  0.9590 -0.0679 -1.3632
   32MOL   C17810160   1.732   5.081   6.162 -0.1837  0.3037  0.2842
   32MOL   C17910161   1.746   5.003   6.291 -0.2104  0.9641 -0.8868
   32MOL   C18010162   1.843   5.017   6.393 -0.5276 -0.0891 -0.4493
   32MOL   C18110163   1.850   4.932   6.501 -0.6353  0.0547  0.2446
   32MOL  Cl18210164   1.961   4.970   6.628  0.1308  0.4396  0.1285
   32MOL   C18310165   1.754   4.828   6.515  0.6075 -0.8654 -0.3690
   32MOL   C18410166   1.658   4.812   6.420  1.0804 -0.1094 -0.0456
   32MOL   C18510167   1.652   4.899   6.312  0.2440  0.2387 -0.5053
   32MOL   C18610168   1.630   5.196   6.176 -0.0327  0.0233 -0.3630
   32MOL   H18710169   1.676   5.014   6.097 -0.5267 -1.0413  1.9260
   32MOL   H18810170   1.919   5.091   6.376 -0.1560 -0.3585  0.0211
   32MOL   H18910171   1.761   4.764   6.601 -0.3905  1.3173  1.3764
   32MOL   H19010172   1.575   4.743   6.429  0.9945  0.2219  1.7132
   32MOL   H19110173   1.569   4.882   6.245 -2.0950  1.3289  1.9915
   32MOL   H19210174   1.631   5.261   6.088 -0.1833 -0.8456 -1.0038
   32MOL   H19310175   1.532   5.151   6.163 -1.5813  3.3926 -0.7990
   32MOL   C19410176   1.621   5.289   6.312  0.0669  0.2782  0.5732
   32MOL   C19510177   1.750   5.373   6.334  0.1264 -0.0134  0.2235
   32MOL   C19610178   1.812   5.444   6.230 -0.1873  0.1285 -0.0756
   32MOL   C19710179   1.921   5.521   6.255  0.1839  0.2279 -0.5415
   32MOL  Cl19810180   2.001   5.613   6.127 -0.0502 -0.2806 -0.2835
   32MOL   C19910181   1.982   5.528   6.383  0.0697  0.5982 -0.7750
   32MOL   C20010182   1.921   5.459   6.488  0.0155 -0.0171  0.6493
   32MOL   C20110183   1.807   5.377   6.464 -0.5707  0.2253  0.2609
   32MOL   C20210184   1.498   5.396   6.312  0.0596 -0.5680  0.6508
   32MOL   H20310185   1.608   5.213   6.389 -0.4922 -2.1273 -1.8179
   32MOL   H20410186   1.764   5.445   6.133  0.7706 -1.7603 -0.5943
   32MOL   H20510187   2.062   5.598   6.405 -0.9405  3.0049 -4.3387
   32MOL   H20610188   1.970   5.454   6.585 -1.9018 -0.3394  1.6129
   32MOL   H20710189   1.763   5.320   6.544 -1.1228 -1.5377 -1.2784
   32MOL   H20810190   1.508   5.458   6.401 -1.4894  0.9756 -0.2183
   32MOL   H20910191   1.511   5.468   6.230 -3.0702 -0.5152  0.1406
   32MOL   C21010192   1.351   5.347   6.313 -0.4143 -0.6883 -0.3959
   32MOL   C21110193   1.343   5.212   6.381  0.2333  0.3384  0.3504
   32MOL   C21210194   1.308   5.100   6.304  0.2271 -0.0692  0.0494
   32MOL   C21310195   1.295   4.971   6.364 -0.5514  0.7583 -0.2189
   32MOL  Cl21410196   1.241   4.835   6.274  0.2673 -0.2559 -0.0046
   32MOL   C21510197   1.334   4.953   6.498  0.4873  0.2826 -0.3744
   32MOL   C21610198   1.388   5.064   6.568 -0.6320 -0.1157 -0.3159
   32MOL   C21710199   1.381   5.193   6.517 -0.5156 -0.2670  0.7174
   32MOL   C21810200   1.266   5.450   6.379 -0.3801 -0.0971 -0.5913
   32MOL   H21910201   1.324   5.342   6.207  0.6768  1.4958 -0.7959
   32MOL   H22010202   1.283   5.107   6.199 -0.9713  2.2178  0.4469
   32MOL   H22110203   1.337   4.855   6.544 -2.0692 -0.5408 -1.8518
   32MOL   H22210204   1.420   5.056   6.671 -0.5153 -3.7077 -0.5847
   32MOL   H22310205   1.427   5.273   6.572 -0.6190 -1.0753  2.0110
   32MOL   H22410206   1.297   5.469   6.481  2.1356  0.2439 -1.3857
   32MOL   H22510207   1.289   5.544   6.328 -0.8807  1.5756  2.1958
   32MOL   C22610208   1.113   5.424   6.378 -0.2166 -0.1157 -0.0182
   32MOL   C22710209   1.052   5.452   6.520 -0.6500  0.2613 -0.2281
   32MOL   C22810210   1.034   5.587   6.569 -0.1875 -0.1837 -0.0001
   32MOL   C22910211   0.996   5.610   6.706  0.3371 -0.3611 -0.4707
   32MOL  Cl23010212   0.980   5.777   6.756  0.3801  0.0643 -0.0695
   32MOL   C23110213   0.966   5.507   6.792 -0.2668  0.4180 -0.2517
   32MOL   C23210214   0.976   5.375   6.739  0.1878 -0.0444 -0.9305
   32MOL   C23310215   1.015   5.346   6.606  0.0298 -0.1779  0.3760
   32MOL   C23410216   1.034   5.496   6.267 -0.0091  0.0314  0.0248
   32MOL   H23510217   1.113   5.317   6.357  1.3429 -0.0491 -0.4317
   32MOL   H23610218   1.051   5.672   6.505  1.7468  0.3255  1.1306
   32MOL   H23710219   0.957   5.529   6.897 -0.6698 -2.5243  0.3865
   32MOL   H23810220   0.965   5.291   6.806 -2.1914 -0.0589 -1.2920
   32MOL   H23910221   1.041   5.246   6.573  1.2338  0.5499 -0.9485
   32MOL   H24010222   0.927   5.485   6.284 -0.0235 -2.5962 -1.3657
   32MOL   H24110223   1.053   5.603   6.265  1.0051 -0.1508 -1.8268
   32MOL   C24210224   1.068   5.431   6.125  0.3853  0.3373  0.0391
   32MOL   C24310225   1.050   5.277   6.108 -0.3298 -0.1941 -0.1628
   32MOL   C24410226   0.941   5.207   6.169  0.3263  0.4500  0.4398
   32MOL   C24510227   0.927   5.066   6.150  0.0043  0.7910  0.2279
   32MOL  Cl24610228   0.820   4.971   6.243 -0.1615  0.1607  0.0739
   32MOL   C24710229   1.021   5.001   6.061 -0.1568 -0.8151 -0.1617
   32MOL   C24810230   1.122   5.081   5.994  0.3006  0.6362  0.2662
   32MOL   C24910231   1.142   5.214   6.020 -0.2315  0.8693 -0.1697
   32MOL   C25010232   0.982   5.484   6.005  0.5780 -0.4952 -0.2079
   32MOL   H25110233   1.174   5.449   6.105  0.2828  1.3379  0.3736
   32MOL   H25210234   0.872   5.242   6.244  1.7521  0.7755  1.6405
   32MOL   H25310235   1.017   4.894   6.048 -0.9270 -0.8827  0.5498
   32MOL   H25410236   1.182   5.035   5.917 -0.3672 -0.6555  0.5009
   32MOL   H25510237   1.221   5.266   5.967 -1.4568  1.2917 -1.5856
   32MOL   H25610238   0.985   5.411   5.925  0.3229  1.0304 -1.6315
   32MOL   H25710239   0.879   5.496   6.038  0.1060 -3.9536 -0.2730
   32MOL   C25810240   1.039   5.617   5.942  0.6168 -0.5379  0.6936
   32MOL   C25910241   1.176   5.578   5.876  0.7780  0.7534 -0.7380
   32MOL   C26010242   1.186   5.480   5.776 -0.1642  0.3279 -0.3344
   32MOL   C26110243   1.315   5.434   5.739 -0.4595  0.6036 -0.0231
   32MOL  Cl26210244   1.318   5.305   5.629 -0.0024  0.3669 -0.3270
   32MOL   C26310245   1.431   5.497   5.791  1.0057 -0.5109  0.2479
   32MOL   C26410246   1.418   5.608   5.876 -0.0849  0.1690 -0.0260
   32MOL   C26510247   1.291   5.646   5.919 -0.0578  0.2566 -0.9395
   32MOL   C26610248   0.942   5.693   5.845  0.1247 -0.5135  0.1254
   32MOL   H26710249   1.059   5.683   6.026 -0.8263 -0.8296  1.2757
   32MOL   H26810250   1.090   5.451   5.738 -0.0459  0.2873 -0.6019
   32MOL   H26910251   1.522   5.446   5.761  1.1856 -0.6639  1.0270
   32MOL   H27010252   1.501   5.667   5.911  0.7122  0.9690 -3.0762
   32MOL   H27110253   1.275   5.734   5.981 -1.2769 -0.7849  0.2574
   32MOL   H27210254   0.941   5.634   5.753  0.5458 -2.4300  1.3138
   32MOL   H27310255   0.843   5.690   5.891  0.2028  2.4954  0.5675
   32MOL   C27410256   0.983   5.849   5.814 -0.0002 -0.2773  0.4272
   32MOL   C27510257   1.106   5.849   5.729 -0.0184  0.4433  0.6745
   32MOL   C27610258   1.224   5.916   5.769 -0.6120  0.4542  0.4709
   32MOL   C27710259   1.341   5.918   5.685 -0.2260 -0.6964 -0.2904
   32MOL  Cl27810260   1.484   5.992   5.741 -0.4279  0.1010  0.0566
   32MOL   C27910261   1.336   5.858   5.557 -0.3979 -0.0852 -0.1022
   32MOL   C28010262   1.216   5.800   5.514  0.0178  0.4931  0.0820
   32MOL   C28110263   1.103   5.798   5.596 -0.5156  0.1387 -0.3475
   32MOL   C28210264   0.861   5.928   5.753 -0.5013 -0.3745  0.5476
   32MOL   H28310265   1.019   5.892   5.907  1.7578  1.7460 -1.1475
   32MOL   H28410266   1.223   5.969   5.863 -1.8257  0.9484  0.1926
   32MOL   H28510267   1.415   5.875   5.486  0.2673 -2.0788  0.1444
   32MOL   H28610268   1.212   5.751   5.418  1.2492 -0.6821  0.6101
   32MOL   H28710269   1.015   5.746   5.562  0.4537 -1.0063 -1.1476
   32MOL   H28810270   0.820   5.884   5.662  0.4266  0.5535 -0.3498
   32MOL   H28910271   0.776   5.936   5.820  0.0020  0.8686  1.0595
   32MOL   C29010272   0.897   6.065   5.701  0.2499 -0.0035  0.0033
   32MOL   C29110273   0.783   6.125   5.623  1.1262 -0.1248  0.2855
   32MOL   C29210274   0.654   6.158   5.675 -0.4499  0.3290 -0.4121
   32MOL   C29310275   0.555   6.206   5.594  0.1036  0.2791  0.6274
   32MOL  Cl29410276   0.400   6.225   5.652 -0.1249  0.4259 -0.1841
   32MOL   C29510277   0.578   6.232   5.458  0.7906 -0.1911  0.6136
   32MOL   C29610278   0.698   6.187   5.398  0.2269  0.5127 -0.3130
   32MOL   C29710279   0.798   6.139   5.479  0.4544 -0.7438 -0.7565
   32MOL   C29810280   0.962   6.156   5.806  0.1152 -0.7080  0.4542
   32MOL   H29910281   0.972   6.064   5.622 -0.5321  1.2365 -0.7754
   32MOL   H30010282   0.645   6.128   5.778  1.5200  0.2981 -0.2234
   32MOL   H30110283   0.497   6.270   5.397  1.4978  1.4801  0.6925
   32MOL   H30210284   0.712   6.188   5.291  2.0286 -0.4083 -0.1019
   32MOL   H30310285   0.891   6.115   5.430  0.7658  2.2070 -1.6953
   32MOL   H30410286   0.889   6.177   5.884 -0.3104 -0.1732 -0.0808
   32MOL   H30510287   1.053   6.115   5.849  0.7248 -1.8978 -1.8969
   32MOL   C30610288   1.017   6.287   5.737 -0.1856  0.0038 -0.2655
   32MOL   C30710289   1.018   6.409   5.836 -0.2967  0.4629  1.0871
   32MOL   C30810290   1.103   6.405   5.952  0.6277  0.0732  0.2373
   32MOL   C30910291   1.109   6.510   6.043 -0.5053 -0.3323  0.1974
   32MOL  Cl31010292   1.195   6.472   6.186  0.4773  0.0096  0.3844
   32MOL   C31110293   1.040   6.627   6.017  0.5470 -0.2407 -0.6662
   32MOL   C31210294   0.960   6.635   5.901 -0.4623 -0.0983 -0.3586
   32MOL   C31310295   0.945   6.527   5.808  0.4332 -0.3665 -0.2382
   32MOL   C31410296   1.151   6.265   5.673 -0.2057 -0.0191  0.1105
   32MOL   H31510297   0.943   6.318   5.663  0.4081  3.0018  0.3136
   32MOL   H31610298   1.156   6.314   5.976  0.0585 -0.7250 -1.4146
   32MOL   H31710299   1.034   6.698   6.098 -0.3639 -0.3902 -0.5935
   32MOL   H31810300   0.906   6.725   5.875 -1.2905 -0.8104 -1.1366
   32MOL   H31910301   0.873   6.535   5.729  1.1433  2.0728 -0.6732
   32MOL   H32010302   1.237   6.240   5.737 -0.3137 -1.0041 -0.1244
   32MOL   H32110303   1.154   6.182   5.602 -1.1693  0.7068 -0.7743
   32MOL   H32210304   1.185   6.356   5.624 -0.3637 -0.4061 -0.7306
   33MOL     C110305   3.905   2.265   3.429 -0.0678  0.3197  0.9777
   33MOL     C210306   3.861   2.374   3.330  0.6237 -0.6431  0.2951
   33MOL     C310307   3.907   2.505   3.340  0.2994  0.5235  0.1497
   33MOL     C410308   3.877   2.599   3.235  0.1496  0.1044 -0.3792
   33MOL    Cl510309   3.947   2.752   3.240  0.0390  0.2485  0.1610
   33MOL     C610310   3.797   2.564   3.127  0.0091  0.0637  0.0446
   33MOL     C710311   3.731   2.439   3.128  0.4404 -0.6290 -0.5475
   33MOL     C810312   3.762   2.343   3.232 -0.1146 -0.5669 -0.7144
   33MOL     C910313   3.968   2.150   3.353  0.7433  0.3219  0.3083
   33MOL    H1010314   3.820   2.235   3.490 -2.7748  1.9736 -1.8582
   33MOL    H1110315   3.970   2.545   3.418 -0.4704 -1.4547  1.8185
   33MOL    H1210316   3.791   2.639   3.049 -2.6917  0.8327  0.9354
   33MOL    H1310317   3.671   2.410   3.043  0.3027 -0.1656 -0.6064
   33MOL    H1410318   3.721   2.243   3.220 -0.7748 -0.1381 -2.1650
   33MOL    H1510319   3.892   2.080   3.317  0.7193  0.8006 -0.5884
   33MOL    H1610320   4.009   2.195   3.263 -2.1569  1.2825 -0.5883
   33MOL    H1710321   3.977   2.311   3.498  0.6819  4.0924 -2.1501
   33MOL    C1810322   4.079   2.090   3.444 -0.5744 -0.1181  0.1042
   33MOL    C1910323   4.013   2.036   3.571  0.1463 -0.0415  0.2300
   33MOL    C2010324   3.909   1.943   3.574 -0.3592  0.7481  0.4240
   33MOL    C2110325   3.863   1.887   3.694  0.3493 -0.5151 -0.0729
   33MOL   Cl2210326   3.734   1.762   3.702  0.2768  0.2241  0.1462
   33MOL    C2310327   3.922   1.934   3.816 -0.3317 -0.2107 -0.0755
   33MOL    C2410328   4.024   2.031   3.819  0.3666 -0.3716  0.3712
   33MOL    C2510329   4.069   2.075   3.694 -0.0873  0.2507  0.5031
   33MOL    C2610330   4.134   1.976   3.364  0.3700  0.4311  0.2002
   33MOL    H2710331   4.152   2.165   3.475 -0.9372 -1.5528  4.8736
   33MOL    H2810332   3.862   1.914   3.481  1.5299 -0.1763 -0.2647
   33MOL    H2910333   3.898   1.875   3.903 -0.7860 -0.9016 -0.6738
   33MOL    H3010334   4.076   2.051   3.911 -0.9633  0.8426  0.8733
   33MOL    H3110335   4.151   2.145   3.696  0.0376  0.1153  0.2109
   33MOL    H3210336   4.055   1.902   3.349  0.6465  0.4434 -1.3621
   33MOL    H3310337   4.158   2.010   3.263  1.5902 -0.8030  0.0512
   33MOL    C3410338   4.244   1.898   3.422  0.2982  0.0460 -0.3918
   33MOL    C3510339   4.268   1.770   3.342  0.4109 -0.1541 -0.8033
   33MOL    C3610340   4.337   1.763   3.217 -0.0285 -0.6493 -0.4678
   33MOL    C3710341   4.356   1.640   3.158  1.1669 -0.1888 -0.5071
   33MOL   Cl3810342   4.440   1.635   3.003  0.1641 -0.1351 -0.0382
   33MOL    C3910343   4.317   1.526   3.221  0.5674  0.5177 -0.1136
   33MOL    C4010344   4.245   1.525   3.342  0.8400 -0.6021 -0.3774
   33MOL    C4110345   4.225   1.648   3.409 -0.2295 -0.3292  0.4013
   33MOL    C4210346   4.374   1.980   3.430 -0.1899  0.4136 -0.1368
   33MOL    H4310347   4.214   1.868   3.522 -0.2966 -0.3028 -0.6734
   33MOL    H4410348   4.367   1.855   3.170 -1.9434  1.4205  2.1944
   33MOL    H4510349   4.339   1.428   3.181 -1.3575 -1.2017  2.8383
   33MOL    H4610350   4.199   1.439   3.388  2.5331 -0.5583  1.4368
   33MOL    H4710351   4.161   1.647   3.496 -2.1984  0.2042 -1.0261
   33MOL    H4810352   4.424   1.971   3.334  0.5873 -0.6396  0.3593
   33MOL    H4910353   4.344   2.081   3.458 -0.2290  0.0617  1.1337
   33MOL    C5010354   4.463   1.922   3.548  0.5230 -0.2001  0.3257
   33MOL    C5110355   4.512   1.776   3.526  0.1322  0.3416  0.5756
   33MOL    C5210356   4.600   1.739   3.426 -0.8803 -0.7806 -0.4623
   33MOL    C5310357   4.634   1.608   3.407  0.0847 -0.0097 -0.7428
   33MOL   Cl5410358   4.709   1.563   3.256  0.0071  0.0658  0.7133
   33MOL    C5510359   4.596   1.506   3.499  0.4493 -0.0364 -0.1125
   33MOL    C5610360   4.510   1.538   3.609 -0.2773  0.6295  0.1889
   33MOL    C5710361   4.468   1.673   3.619  0.1548  1.1707 -0.0108
   33MOL    C5810362   4.584   2.018   3.564 -0.3663 -0.4490 -0.2202
   33MOL    H5910363   4.403   1.930   3.639 -0.5482  0.8610 -0.4732
   33MOL    H6010364   4.632   1.814   3.356  0.0903 -0.3469  0.4364
   33MOL    H6110365   4.622   1.403   3.481  0.7026 -0.0929  0.5596
   33MOL    H6210366   4.470   1.464   3.677 -2.2522  0.0079 -1.5874
   33MOL    H6310367   4.405   1.698   3.703  0.4480  1.5162  0.1088
   33MOL    H6410368   4.665   1.961   3.610 -0.1370 -0.0116 -0.0794
   33MOL    H6510369   4.616   2.048   3.464 -0.3151  0.1621 -0.0191
   33MOL    C6610370   4.562   2.142   3.655  0.1264  0.0444  0.2098
   33MOL    C6710371   4.557   2.111   3.805  0.4567  0.2420 -0.4645
   33MOL    C6810372   4.427   2.128   3.870  0.3828 -0.0255  0.2790
   33MOL    C6910373   4.424   2.106   4.008  0.5996  0.6553 -0.3188
   33MOL   Cl7010374   4.280   2.136   4.097  0.1287 -0.3462  0.0065
   33MOL    C7110375   4.542   2.070   4.079  0.0566  0.6712 -0.4077
   33MOL    C7210376   4.668   2.052   4.008 -0.1319 -0.3323 -0.1872
   33MOL    C7310377   4.674   2.076   3.874  0.6567 -0.8906  0.1153
   33MOL    C7410378   4.667   2.254   3.630  0.7527 -0.0808  0.6282
   33MOL    H7510379   4.468   2.192   3.633  0.2953  0.5281  0.5582
   33MOL    H7610380   4.344   2.164   3.810  0.9133  2.1850  0.8219
   33MOL    H7710381   4.526   2.057   4.185  0.8884  0.8422 -0.2590
   33MOL    H7810382   4.757   2.018   4.058  0.4943  0.8879 -0.4528
   33MOL    H7910383   4.771   2.070   3.826  1.6729  1.7339  1.7605
   33MOL    H8010384   4.651   2.332   3.704 -1.5024 -0.0168  0.1131
   33MOL    H8110385   4.766   2.227   3.665  0.5796 -2.0468 -0.2966
   33MOL    C8210386   4.667   2.327   3.498 -0.4635  0.4465  0.0318
   33MOL    C8310387   4.525   2.347   3.438 -0.5560  0.2688  0.0088
   33MOL    C8410388   4.432   2.428   3.507  0.2933  0.0858  0.2577
   33MOL    C8510389   4.307   2.457   3.454 -0.5569 -0.5064  1.1089
   33MOL   Cl8610390   4.199   2.549   3.542 -0.1362 -0.0080 -0.1012
   33MOL    C8710391   4.282   2.407   3.327  0.6204 -0.8676  0.0265
   33MOL    C8810392   4.369   2.317   3.254 -0.3036  0.5410  0.3644
   33MOL    C8910393   4.497   2.286   3.309  0.6242  0.0389 -0.2608
   33MOL    C9010394   4.737   2.461   3.515  0.7251 -0.5208  0.1234
   33MOL    H9110395   4.721   2.265   3.427 -0.4673  1.6289 -1.0209
   33MOL    H9210396   4.457   2.465   3.605  1.1109  2.6596 -0.8793
   33MOL    H9310397   4.187   2.438   3.285  1.2129 -0.1387 -0.7911
   33MOL    H9410398   4.345   2.287   3.153 -0.0722 -1.0174  0.7648
   33MOL    H9510399   4.565   2.233   3.243  3.2948  1.4192  1.3061
   33MOL    H9610400   4.694   2.518   3.598  0.2405  0.3901 -0.7457
   33MOL    H9710401   4.835   2.425   3.547 -0.1906 -2.3646  0.9787
   33MOL    C9810402   4.752   2.545   3.386 -0.2095 -0.4080 -0.7626
   33MOL    C9910403   4.651   2.659   3.384 -0.9382  0.5858  0.1422
   33MOL   C10010404   4.536   2.662   3.306  0.2984  0.1899 -0.0436
   33MOL   C10110405   4.448   2.768   3.320  0.3997 -0.3684  0.3633
   33MOL  Cl10210406   4.301   2.763   3.231 -0.1083  0.0011 -0.1887
   33MOL   C10310407   4.476   2.875   3.409  0.5241 -0.0772 -0.5903
   33MOL   C10410408   4.596   2.874   3.488 -0.1020 -0.3421  0.0377
   33MOL   C10510409   4.678   2.761   3.479 -0.1306 -0.6048 -0.2362
   33MOL   C10610410   4.892   2.590   3.347 -0.2653  0.6405 -0.0943
   33MOL   H10710411   4.715   2.479   3.307 -0.9798 -1.7599  0.6848
   33MOL   H10810412   4.516   2.587   3.232 -0.0999  1.4993 -1.2745
   33MOL   H10910413   4.402   2.954   3.414 -0.6392 -0.9605 -3.2639
   33MOL   H11010414   4.616   2.952   3.560  1.1372  0.2093 -0.8780
   33MOL   H11110415   4.762   2.741   3.545 -0.7242 -1.0364  0.4063
   33MOL   H11210416   4.879   2.638   3.250  1.5083  1.2417 -0.0460
   33MOL   H11310417   4.928   2.670   3.412 -2.1785  0.8989  0.6716
   33MOL   C11410418   4.999   2.479   3.326  0.3107  0.1479  0.1191
   33MOL   C11510419   4.957   2.364   3.235  0.1529 -0.4029 -0.3493
   33MOL   C11610420   4.927   2.396   3.097  0.5118  0.0017 -0.5198
   33MOL   C11710421   4.878   2.293   3.013 -0.6600  0.4977 -0.2142
   33MOL  Cl11810422   4.848   2.329   2.849  0.1284 -0.2266  0.4473
   33MOL   C11910423   4.868   2.157   3.049  0.4890  0.2607  0.5977
   33MOL   C12010424   4.898   2.124   3.179  0.9584 -0.6165  0.2745
   33MOL   C12110425   4.945   2.223   3.274 -0.4121 -0.4556 -0.4140
   33MOL   C12210426   5.134   2.538   3.263 -0.4340 -0.4904 -0.1981
   33MOL   H12310427   5.012   2.432   3.424 -2.0116 -0.8504 -0.0332
   33MOL   H12410428   4.935   2.486   3.038  0.7495 -0.0920 -0.6327
   33MOL   H12510429   4.850   2.084   2.971 -0.2574 -1.4821  2.3555
   33MOL   H12610430   4.866   2.028   3.218  0.6388 -1.7903 -2.7374
   33MOL   H12710431   4.944   2.188   3.376 -0.6389  0.9666  0.0763
   33MOL   H12810432   5.138   2.552   3.155 -0.0410 -1.0021 -0.2537
   33MOL   H12910433   5.150   2.638   3.302 -0.3805  0.0259 -1.4980
   33MOL   C13010434   5.261   2.452   3.296  0.1673 -0.5735 -0.0775
   33MOL   C13110435   5.384   2.485   3.210 -0.4556 -0.0808 -0.6202
   33MOL   C13210436   5.465   2.601   3.229 -0.5047  0.1975 -0.0958
   33MOL   C13310437   5.576   2.618   3.151 -0.3097  0.1230 -1.2594
   33MOL  Cl13410438   5.678   2.749   3.193 -0.1507 -0.1729 -0.0850
   33MOL   C13510439   5.599   2.540   3.038 -0.2930 -0.6635 -1.0045
   33MOL   C13610440   5.522   2.430   3.014  0.4296  0.4703 -0.4914
   33MOL   C13710441   5.408   2.399   3.099 -0.2657  0.6511  0.4662
   33MOL   C13810442   5.295   2.467   3.449 -0.2375 -0.0908  0.2455
   33MOL   H13910443   5.241   2.346   3.279 -0.8788 -0.9433  3.2470
   33MOL   H14010444   5.454   2.673   3.309  0.2192  1.2104 -0.8929
   33MOL   H14110445   5.674   2.562   2.964  3.0131  1.5487  2.7918
   33MOL   H14210446   5.548   2.383   2.920  0.2405 -0.7202  0.0481
   33MOL   H14310447   5.347   2.315   3.066  3.3149 -1.9509  0.2140
   33MOL   H14410448   5.316   2.573   3.458  1.0170 -0.3031 -0.0773
   33MOL   H14510449   5.214   2.450   3.520 -0.3156  0.5395  0.3107
   33MOL   C14610450   5.421   2.392   3.504 -0.0620 -0.3551 -0.4247
   33MOL   C14710451   5.494   2.487   3.601 -0.3671 -0.0043 -0.1271
   33MOL   C14810452   5.451   2.499   3.732 -0.2037 -0.2254 -0.2071
   33MOL   C14910453   5.521   2.572   3.828  0.1821  0.2638  0.1202
   33MOL  Cl15010454   5.466   2.574   3.991  0.1953  0.5443 -0.2223
   33MOL   C15110455   5.626   2.652   3.783 -0.5622  0.3151 -0.2517
   33MOL   C15210456   5.666   2.648   3.648  1.1515 -0.0455  0.0847
   33MOL   C15310457   5.601   2.564   3.555  0.1617 -0.6410 -0.6912
   33MOL   C15410458   5.385   2.258   3.560  0.0204  0.1925 -0.2766
   33MOL   H15510459   5.487   2.373   3.419  1.1401 -2.6194  0.9645
   33MOL   H15610460   5.369   2.438   3.768 -0.5199 -0.4411 -1.2946
   33MOL   H15710461   5.669   2.724   3.851 -0.0404 -0.6439  0.4415
   33MOL   H15810462   5.741   2.715   3.608  2.5504  0.1467  2.8905
   33MOL   H15910463   5.629   2.569   3.451  1.7977  1.3546 -0.1792
   33MOL   H16010464   5.329   2.272   3.652  0.4772 -2.0583  0.3672
   33MOL   H16110465   5.323   2.214   3.483  1.0426  0.5294 -1.3109
   33MOL   C16210466   5.500   2.155   3.577 -0.8380 -0.3976 -0.1670
   33MOL   C16310467   5.587   2.193   3.699  0.0425  0.8005  0.5161
   33MOL   C16410468   5.550   2.158   3.830  0.6646 -0.1799 -0.6002
   33MOL   C16510469   5.637   2.206   3.930  0.8784 -0.5187  0.2670
   33MOL  Cl16610470   5.594   2.186   4.093 -0.3139 -0.2072 -0.2391
   33MOL   C16710471   5.755   2.274   3.907 -0.0013  0.7450  0.5677
   33MOL   C16810472   5.788   2.304   3.778 -0.3058 -0.4452  0.2564
   33MOL   C16910473   5.705   2.265   3.675  0.2402  0.3030  0.5088
   33MOL   C17010474   5.460   2.003   3.581 -0.0952 -0.0665  0.1679
   33MOL   H17110475   5.561   2.167   3.487 -1.5691 -1.7811 -0.8691
   33MOL   H17210476   5.461   2.097   3.836  0.2716  0.4237 -0.3255
   33MOL   H17310477   5.816   2.303   3.991  0.0080 -2.0643  1.5879
   33MOL   H17410478   5.871   2.367   3.749 -2.4261  1.1282 -2.6036
   33MOL   H17510479   5.740   2.295   3.578 -0.0267 -1.3877 -0.1332
   33MOL   H17610480   5.553   1.947   3.588 -1.2948 -2.0414  0.6775
   33MOL   H17710481   5.419   1.981   3.680 -1.5657  0.0942 -0.3919
   33MOL   C17810482   5.368   1.941   3.468 -0.0288 -0.0171  0.8713
   33MOL   C17910483   5.402   1.974   3.323  0.0742  0.6323 -0.1724
   33MOL   C18010484   5.307   2.011   3.228  0.4577  0.8726  0.4004
   33MOL   C18110485   5.336   2.030   3.096 -0.0715 -0.2615  0.1375
   33MOL  Cl18210486   5.212   2.064   2.980 -0.3678 -0.0036 -0.1930
   33MOL   C18310487   5.473   2.013   3.060  0.8492 -0.7147  0.0503
   33MOL   C18410488   5.573   1.996   3.156 -0.0828  0.2883  0.3300
   33MOL   C18510489   5.539   1.983   3.292 -0.2541 -0.8486  0.7263
   33MOL   C18610490   5.375   1.780   3.483  0.1124  0.5560  0.2307
   33MOL   H18710491   5.266   1.971   3.492  0.2847  1.6586  0.1644
   33MOL   H18810492   5.202   2.027   3.250  0.5317  1.2819  0.4629
   33MOL   H18910493   5.500   2.008   2.956  0.2705 -1.0958 -0.0796
   33MOL   H19010494   5.677   2.003   3.128  0.5029  3.3747  2.9834
   33MOL   H19110495   5.618   1.965   3.363  0.5063  1.7100  0.5783
   33MOL   H19210496   5.330   1.748   3.389 -0.4681  0.1853  0.6342
   33MOL   H19310497   5.483   1.762   3.477  0.2584  1.6491 -0.7536
   33MOL   C19410498   5.305   1.710   3.603 -0.4636 -0.0654 -0.5794
   33MOL   C19510499   5.151   1.736   3.613  0.1211  0.1795  0.2616
   33MOL   C19610500   5.089   1.735   3.744  0.7726  0.0578  1.1369
   33MOL   C19710501   4.949   1.739   3.755  0.1192  0.1936 -0.2647
   33MOL  Cl19810502   4.882   1.720   3.914  0.4410 -0.2024 -0.4350
   33MOL   C19910503   4.865   1.756   3.643 -0.0642  0.4461 -0.6951
   33MOL   C20010504   4.925   1.766   3.515 -0.3495  0.0733  0.1661
   33MOL   C20110505   5.067   1.747   3.501 -0.1266  0.1252 -0.8277
   33MOL   C20210506   5.322   1.554   3.611 -0.2171 -0.2406 -0.6667
   33MOL   H20310507   5.355   1.747   3.692  0.1046  1.3936 -1.4845
   33MOL   H20410508   5.150   1.730   3.834 -2.0055 -1.8106  2.9868
   33MOL   H20510509   4.758   1.753   3.650  0.0365 -0.7769  0.5095
   33MOL   H20610510   4.871   1.759   3.422  1.6186  0.0719 -1.0012
   33MOL   H20710511   5.115   1.748   3.404 -1.7238 -3.9185 -1.7564
   33MOL   H20810512   5.243   1.516   3.675 -1.6603  0.9371 -1.7036
   33MOL   H20910513   5.319   1.510   3.511  0.5999 -0.3634 -0.6359
   33MOL   C21010514   5.458   1.503   3.654  0.2668 -0.4630  0.5214
   33MOL   C21110515   5.515   1.562   3.787 -0.1394  0.4929  0.2030
   33MOL   C21210516   5.608   1.670   3.781  0.3975  0.6544  0.4676
   33MOL   C21310517   5.652   1.729   3.904 -0.0986  0.1520 -0.1014
   33MOL  Cl21410518   5.755   1.869   3.887  0.2821  0.0206 -0.1000
   33MOL   C21510519   5.612   1.673   4.029 -0.0618 -0.4878 -0.2405
   33MOL   C21610520   5.528   1.561   4.028 -0.6272 -0.0924  0.0531
   33MOL   C21710521   5.476   1.512   3.910  0.2463 -0.8279 -0.2385
   33MOL   C21810522   5.448   1.347   3.645 -0.4144 -0.0014 -0.1957
   33MOL   H21910523   5.524   1.542   3.576 -0.5562  1.8444  0.9390
   33MOL   H22010524   5.640   1.710   3.686  3.4486 -1.9379  0.2930
   33MOL   H22110525   5.660   1.703   4.121 -0.3120 -0.4691 -0.1141
   33MOL   H22210526   5.501   1.522   4.125 -0.1722 -0.1268  0.1653
   33MOL   H22310527   5.402   1.433   3.906 -2.6369  1.7525  0.6701
   33MOL   H22410528   5.383   1.309   3.724  0.9076 -0.0263  0.8952
   33MOL   H22510529   5.400   1.321   3.551 -0.7631  0.4960 -0.1591
   33MOL   C22610530   5.586   1.278   3.660  0.3389  0.4526  0.4001
   33MOL   C22710531   5.568   1.134   3.705 -1.0303 -0.4410 -0.0386
   33MOL   C22810532   5.573   1.107   3.845  0.1430 -0.2106 -0.0696
   33MOL   C22910533   5.553   0.971   3.890 -0.5532 -0.2005  0.3742
   33MOL  Cl23010534   5.541   0.938   4.064  0.0115 -0.2656 -0.2494
   33MOL   C23110535   5.529   0.870   3.796  0.2174 -0.2497 -0.0435
   33MOL   C23210536   5.509   0.905   3.659  0.4382  0.1288  0.0876
   33MOL   C23310537   5.534   1.033   3.613 -0.2176 -0.0000 -0.6107
   33MOL   C23410538   5.707   1.310   3.563 -0.5447  0.1542 -0.6247
   33MOL   H23510539   5.624   1.313   3.756 -2.3784  2.5908  0.7670
   33MOL   H23610540   5.606   1.180   3.917  1.3918  1.3022 -2.1341
   33MOL   H23710541   5.510   0.765   3.812 -1.1035  0.0797  0.6889
   33MOL   H23810542   5.485   0.823   3.594 -2.6344  1.3139 -0.3342
   33MOL   H23910543   5.522   1.052   3.507  1.1120  1.3585 -0.5294
   33MOL   H24010544   5.668   1.283   3.465 -0.4223  2.1047 -1.2305
   33MOL   H24110545   5.730   1.416   3.549 -0.2773  0.1657 -0.1231
   33MOL   C24210546   5.841   1.234   3.583 -0.2389 -0.3530  0.1130
   33MOL   C24310547   5.853   1.127   3.475 -0.3622  0.2478  0.0419
   33MOL   C24410548   5.863   1.164   3.342 -0.4768 -0.3132 -0.0353
   33MOL   C24510549   5.865   1.064   3.248  0.9691 -0.6561 -0.1700
   33MOL  Cl24610550   5.880   1.115   3.087 -0.2417 -0.0698  0.2660
   33MOL   C24710551   5.857   0.929   3.278 -0.1896  0.1620  0.5260
   33MOL   C24810552   5.842   0.892   3.408 -0.8276 -0.6382  0.8455
   33MOL   C24910553   5.843   0.986   3.512  0.0013 -1.0022 -0.0214
   33MOL   C25010554   5.959   1.326   3.579  0.1344 -0.3418 -0.0088
   33MOL   H25110555   5.841   1.171   3.671 -0.4455 -0.5638 -0.0369
   33MOL   H25210556   5.865   1.268   3.311 -0.2022 -0.2317  0.2471
   33MOL   H25310557   5.857   0.864   3.191 -0.4236  1.9503 -0.8275
   33MOL   H25410558   5.834   0.787   3.433 -0.1011 -0.8715  0.1444
   33MOL   H25510559   5.834   0.949   3.613 -1.2237  1.1903  0.7228
   33MOL   H25610560   6.044   1.267   3.543  1.3820  0.3222  1.8049
   33MOL   H25710561   5.941   1.405   3.506 -0.1113 -0.4829 -0.1026
   33MOL   C25810562   5.991   1.408   3.703  0.0722  0.7528 -0.1451
   33MOL   C25910563   5.976   1.329   3.831  0.8261 -0.2239  0.0243
   33MOL   C26010564   5.905   1.381   3.941 -0.1618  0.1124 -0.4172
   33MOL   C26110565   5.877   1.302   4.055  0.2697  1.2424 -0.0473
   33MOL  Cl26210566   5.780   1.367   4.179  0.1672 -0.1179  0.5225
   33MOL   C26310567   5.932   1.167   4.064  0.7426 -0.7071  0.5031
   33MOL   C26410568   6.020   1.122   3.959  0.5911  0.3707 -0.0700
   33MOL   C26510569   6.036   1.203   3.842  0.7330 -0.4299 -0.5960
   33MOL   C26610570   6.128   1.476   3.695  0.3997 -0.2388  0.3152
   33MOL   H26710571   5.917   1.488   3.712 -1.0942 -0.5641  2.7873
   33MOL   H26810572   5.861   1.480   3.944  1.8966  1.0156  0.3910
   33MOL   H26910573   5.929   1.113   4.157  0.9518 -1.2606  0.1889
   33MOL   H27010574   6.065   1.024   3.954  1.1965  0.6042  0.7251
   33MOL   H27110575   6.085   1.163   3.755  0.2705 -0.2368 -0.9467
   33MOL   H27210576   6.163   1.511   3.792  0.5704  1.0656 -0.2099
   33MOL   H27310577   6.192   1.391   3.673 -0.7153 -0.5100 -2.0318
   33MOL   C27410578   6.156   1.586   3.586  0.3829  0.1732 -0.0157
   33MOL   C27510579   6.108   1.725   3.624 -0.1666 -0.5901 -0.1445
   33MOL   C27610580   5.997   1.792   3.563 -0.5646  0.3730  0.1309
   33MOL   C27710581   5.952   1.920   3.611  0.0245 -0.5924  0.2663
   33MOL  Cl27810582   5.821   1.995   3.528 -0.0232  0.2337 -0.4347
   33MOL   C27910583   6.027   1.984   3.716 -0.3984  0.1321 -0.3437
   33MOL   C28010584   6.131   1.911   3.780 -0.6887  0.1866  0.2424
   33MOL   C28110585   6.171   1.785   3.733  0.3652 -0.9251 -0.4158
   33MOL   C28210586   6.302   1.590   3.552  0.3623  0.2097  0.4825
   33MOL   H28310587   6.092   1.561   3.501  0.0775  0.8099  0.0325
   33MOL   H28410588   5.954   1.746   3.476  0.7184 -1.0048  0.2034
   33MOL   H28510589   5.997   2.077   3.761  0.1048  0.0992  0.0811
   33MOL   H28610590   6.169   1.942   3.876  3.4267 -0.6791 -1.0090
   33MOL   H28710591   6.249   1.729   3.781 -1.0527 -2.9877 -0.4789
   33MOL   H28810592   6.318   1.694   3.524  1.9920 -0.0065  0.5791
   33MOL   H28910593   6.362   1.577   3.642 -1.0468 -1.3066  1.2267
   33MOL   C29010594   6.350   1.508   3.433  0.5826  0.1513 -0.4965
   33MOL   C29110595   6.249   1.475   3.325 -0.3144 -0.0574  0.2030
   33MOL   C29210596   6.172   1.577   3.263  0.2348 -0.3312 -0.0168
   33MOL   C29310597   6.076   1.534   3.170  0.7933  0.7571 -0.2442
   33MOL  Cl29410598   5.987   1.667   3.100 -0.0828 -0.1835 -0.1072
   33MOL   C29510599   6.058   1.399   3.132 -0.3045 -0.2801  0.1117
   33MOL   C29610600   6.135   1.304   3.195  0.0115 -0.2662 -0.0580
   33MOL   C29710601   6.236   1.337   3.284  0.3330 -0.7777  0.1916
   33MOL   C29810602   6.482   1.574   3.376 -0.0788 -0.6631 -0.5665
   33MOL   H29910603   6.388   1.412   3.467 -3.1085 -1.4173 -0.4785
   33MOL   H30010604   6.178   1.682   3.288  0.4001 -0.1007 -1.0207
   33MOL   H30110605   5.976   1.360   3.075  1.3707 -0.8894 -1.9207
   33MOL   H30210606   6.119   1.200   3.170  0.0051 -0.4336  0.6281
   33MOL   H30310607   6.292   1.260   3.336  1.6235  0.2690  0.3891
   33MOL   H30410608   6.501   1.516   3.286 -0.1093 -0.3139 -0.7978
   33MOL   H30510609   6.464   1.679   3.350 -0.4146 -0.1005  1.7604
   33MOL   C30610610   6.605   1.570   3.460  0.1445  0.2787 -0.1246
   33MOL   C30710611   6.637   1.430   3.502  0.2348  0.8648 -0.0372
   33MOL   C30810612   6.673   1.336   3.401  0.1508 -0.1483  0.4525
   33MOL   C30910613   6.713   1.201   3.436 -0.6853  0.1965 -0.2511
   33MOL  Cl31010614   6.751   1.087   3.313  0.3540 -0.2249  0.2353
   33MOL   C31110615   6.708   1.171   3.572  0.5363  0.6146  0.5394
   33MOL   C31210616   6.672   1.267   3.672  0.0280 -0.3921  0.3068
   33MOL   C31310617   6.634   1.394   3.636  0.2570  0.2145  0.1420
   33MOL   C31410618   6.733   1.635   3.396 -0.0230 -0.5399  0.8037
   33MOL   H31510619   6.585   1.631   3.548  0.4379 -0.8925  0.7717
   33MOL   H31610620   6.664   1.349   3.295 -1.4730 -1.8983  0.3465
   33MOL   H31710621   6.745   1.072   3.594  0.3615  0.5459  0.5226
   33MOL   H31810622   6.659   1.246   3.777 -0.6906 -0.1452  0.2706
   33MOL   H31910623   6.606   1.465   3.713 -0.9080 -0.0526 -0.0338
   33MOL   H32010624   6.809   1.680   3.460 -1.2195 -1.5236  2.9868
   33MOL   H32110625   6.780   1.576   3.317  0.1633  0.0550  0.4653
   33MOL   H32210626   6.699   1.725   3.345 -1.7346 -1.1785  0.7801
   34MOL     C110627   0.337   2.436   5.186 -0.6541  0.2013 -0.1926
   34MOL     C210628   0.458   2.428   5.278 -0.1181 -0.4715 -0.0627
   34MOL     C310629   0.546   2.322   5.279  0.0126 -0.2144 -0.4495
   34MOL     C410630   0.643   2.311   5.375  0.1431 -0.5002  0.4458
   34MOL    Cl510631   0.735   2.165   5.381 -0.2994  0.0547  0.3074
   34MOL     C610632   0.660   2.410   5.475 -0.7367  0.4646 -0.0441
   34MOL     C710633   0.581   2.534   5.471  0.3664  0.4213  0.4443
   34MOL     C810634   0.479   2.535   5.375 -0.0544  0.0890  0.3127
   34MOL     C910635   0.354   2.561   5.094 -0.7837 -0.4638 -0.6578
   34MOL    H1010636   0.249   2.437   5.249  1.3672  0.1723  2.7351
   34MOL    H1110637   0.544   2.246   5.201  0.0500 -3.4023  2.5142
   34MOL    H1210638   0.729   2.392   5.556 -1.6742  0.2394  0.7244
   34MOL    H1310639   0.601   2.614   5.540  0.1439 -0.0779  1.0873
   34MOL    H1410640   0.423   2.627   5.372  1.9144  1.5464  4.3210
   34MOL    H1510641   0.358   2.655   5.148 -0.2561  0.5827 -2.4463
   34MOL    H1610642   0.450   2.555   5.041 -0.3137  1.9169 -0.1218
   34MOL    H1710643   0.351   2.351   5.119 -0.4704  0.4851 -0.5138
   34MOL    C1810644   0.246   2.570   4.993 -1.2080  0.1849  0.1529
   34MOL    C1910645   0.121   2.635   5.060 -0.1131  0.6746  0.2616
   34MOL    C2010646   0.124   2.768   5.101 -1.2222  0.2249  0.5286
   34MOL    C2110647   0.007   2.833   5.144 -0.3622 -0.6196 -1.2479
   34MOL   Cl2210648   0.010   2.998   5.198 -0.2123  0.2445 -0.0028
   34MOL    C2310649   8.318   2.760   5.152  0.1610  0.0977 -0.4866
   34MOL    C2410650   8.323   2.619   5.121  0.0277  0.2753  0.1894
   34MOL    C2510651   8.433   2.562   5.061 -0.3078 -0.0747 -0.3504
   34MOL    C2610652   0.284   2.656   4.867  0.3399  0.0375 -0.4445
   34MOL    H2710653   0.225   2.472   4.950  0.6112  0.3410 -1.1447
   34MOL    H2810654   0.216   2.823   5.096 -2.1419  1.6590 -1.1270
   34MOL    H2910655   8.228   2.804   5.192  2.3130  2.2646  2.1339
   34MOL    H3010656   8.232   2.561   5.127  0.0646  0.2547  0.5700
   34MOL    H3110657   0.003   2.459   5.027 -0.0771 -1.0599  2.4933
   34MOL    H3210658   0.203   2.706   4.815  1.2076  0.5536 -1.3142
   34MOL    H3310659   0.347   2.733   4.910  0.9920 -0.3962 -0.6144
   34MOL    C3410660   0.352   2.569   4.763  0.0418 -0.3995  0.0331
   34MOL    C3510661   0.254   2.467   4.703 -0.0767 -0.0316 -0.2955
   34MOL    C3610662   0.300   2.340   4.663 -0.8649 -0.1141  0.2839
   34MOL    C3710663   0.226   2.232   4.624  0.2054  0.0451 -0.9641
   34MOL   Cl3810664   0.300   2.091   4.572 -0.0854 -0.1201  0.0520
   34MOL    C3910665   0.089   2.248   4.626  0.5422  0.2911 -0.1840
   34MOL    C4010666   0.032   2.374   4.659  0.5885 -0.6502 -0.5691
   34MOL    C4110667   0.112   2.491   4.686  0.1698  0.9148 -0.5972
   34MOL    C4210668   0.391   2.661   4.645  0.0812  0.0355  0.7960
   34MOL    H4310669   0.432   2.514   4.813 -1.1497  0.1123  2.5693
   34MOL    H4410670   0.406   2.330   4.676 -0.8783  0.5483  0.9678
   34MOL    H4510671   0.027   2.166   4.593 -0.7777  2.2966 -2.9107
   34MOL    H4610672   8.359   2.381   4.661  0.4333 -2.9672  0.8079
   34MOL    H4710673   0.064   2.587   4.705  1.3316  1.4725 -0.4174
   34MOL    H4810674   0.434   2.602   4.564 -2.1634 -1.1261  0.4214
   34MOL    H4910675   0.306   2.701   4.590  0.6588 -1.1087 -1.0045
   34MOL    C5010676   0.494   2.774   4.667  0.4133  0.8034 -0.3417
   34MOL    C5110677   0.639   2.716   4.676  0.4198 -0.1299 -0.4272
   34MOL    C5210678   0.702   2.651   4.570  0.6064 -0.2877 -0.4061
   34MOL    C5310679   0.834   2.603   4.575  0.6031 -0.6921  0.7051
   34MOL   Cl5410680   0.900   2.528   4.434 -0.3825  0.2001  0.0032
   34MOL    C5510681   0.913   2.631   4.686 -0.3969 -0.3903  0.2895
   34MOL    C5610682   0.858   2.700   4.789 -0.4789  0.2611 -0.1135
   34MOL    C5710683   0.722   2.741   4.787  0.4764  1.0170 -0.7087
   34MOL    C5810684   0.482   2.872   4.545 -0.0482 -0.6373 -0.0496
   34MOL    H5910685   0.473   2.829   4.758  1.1131  1.6948 -0.7017
   34MOL    H6010686   0.640   2.625   4.485 -3.6441  0.8793  2.1358
   34MOL    H6110687   1.021   2.618   4.690 -0.3746  0.0416  1.0674
   34MOL    H6210688   0.928   2.730   4.866  0.7928  0.5585 -1.3689
   34MOL    H6310689   0.680   2.792   4.872  3.8633 -3.9987  4.3397
   34MOL    H6410690   0.511   2.826   4.451  0.7276  0.4149 -0.3392
   34MOL    H6510691   0.384   2.915   4.520 -1.0512 -1.3553  2.4465
   34MOL    C6610692   0.568   2.998   4.555 -1.1502  0.1127  0.2027
   34MOL    C6710693   0.691   3.006   4.453  0.2959  0.2456  0.6059
   34MOL    C6810694   0.671   3.035   4.315 -1.0541  0.0324 -0.6742
   34MOL    C6910695   0.774   3.025   4.224  0.0774 -0.6032  0.3847
   34MOL   Cl7010696   0.740   3.025   4.055 -0.0329 -0.8129 -0.2909
   34MOL    C7110697   0.904   2.999   4.267  0.4140  0.3330 -0.2808
   34MOL    C7210698   0.923   2.979   4.409 -0.1033  0.1647  0.1103
   34MOL    C7310699   0.820   2.978   4.498  0.9592  0.9060 -0.1869
   34MOL    C7410700   0.491   3.125   4.548  0.1572  0.7057  0.0851
   34MOL    H7510701   0.622   2.991   4.649  1.4018  0.2231 -1.2037
   34MOL    H7610702   0.575   3.056   4.270 -0.6630  0.7711 -1.1750
   34MOL    H7710703   0.983   2.995   4.194 -0.2222  2.7615 -1.1575
   34MOL    H7810704   1.020   2.974   4.455  0.0106  1.8016  0.0762
   34MOL    H7910705   0.834   2.960   4.603 -1.7184 -0.2061  0.0249
   34MOL    H8010706   0.437   3.117   4.453 -2.9845  0.1203  1.8538
   34MOL    H8110707   0.415   3.120   4.625  0.9365  2.5179  0.9969
   34MOL    C8210708   0.570   3.256   4.560 -0.0628 -0.5240 -0.3126
   34MOL    C8310709   0.520   3.367   4.464  0.9447  0.1698 -0.3776
   34MOL    C8410710   0.392   3.425   4.487  0.2842  0.2719  1.2244
   34MOL    C8510711   0.346   3.530   4.402  0.6392  0.0822 -0.0545
   34MOL   Cl8610712   0.190   3.608   4.425  0.2357 -0.3079 -0.0747
   34MOL    C8710713   0.431   3.589   4.304 -0.1353  0.1689  0.5156
   34MOL    C8810714   0.553   3.519   4.275  0.3214 -0.3126 -0.5603
   34MOL    C8910715   0.596   3.415   4.356  0.5671 -0.8143  0.2396
   34MOL    C9010716   0.578   3.293   4.714 -0.2070  0.8779  0.7609
   34MOL    H9110717   0.670   3.240   4.520  0.4009  2.5609 -0.5217
   34MOL    H9210718   0.337   3.400   4.577  0.2368  0.0473  1.1343
   34MOL    H9310719   0.403   3.677   4.249  0.2179  0.6673  1.1277
   34MOL    H9410720   0.627   3.561   4.210  1.1837  0.3529  0.8225
   34MOL    H9510721   0.693   3.374   4.330  0.6119 -1.5244  1.4895
   34MOL    H9610722   0.479   3.276   4.757 -1.3666  1.2646 -1.7118
   34MOL    H9710723   0.643   3.224   4.768  1.6745  1.2725 -0.9836
   34MOL    C9810724   0.622   3.434   4.759 -0.0770 -0.0879 -0.0202
   34MOL    C9910725   0.493   3.511   4.808 -0.0670 -0.2147  0.5714
   34MOL   C10010726   0.431   3.491   4.934 -0.5072 -0.1881 -0.1587
   34MOL   C10110727   0.321   3.560   4.963 -0.9314  0.6623  0.8726
   34MOL  Cl10210728   0.261   3.550   5.128  0.1125  0.1223  0.6057
   34MOL   C10310729   0.262   3.656   4.876  1.0634  0.6687  0.0270
   34MOL   C10410730   0.326   3.693   4.754 -0.2461 -0.2889 -0.0460
   34MOL   C10510731   0.447   3.621   4.719  0.6235  0.1404 -0.1632
   34MOL   C10610732   0.745   3.439   4.857  0.2685  1.6742 -0.5481
   34MOL   H10710733   0.645   3.494   4.670  2.2482 -0.1101  0.5470
   34MOL   H10810734   0.482   3.424   5.003  1.3042  0.1307 -1.1679
   34MOL   H10910735   0.184   3.723   4.908  1.4764  0.6088  1.1774
   34MOL   H11010736   0.298   3.778   4.693  1.6372 -1.6607 -2.9292
   34MOL   H11110737   0.507   3.647   4.633  0.8992 -0.7382 -0.2392
   34MOL   H11210738   0.765   3.540   4.892  0.2097  1.3732  0.3779
   34MOL   H11310739   0.710   3.378   4.940  0.3165  0.6064 -1.2930
   34MOL   C11410740   0.869   3.397   4.795 -0.5867 -0.2746 -0.7238
   34MOL   C11510741   0.910   3.450   4.658 -0.0115  0.5175 -0.4313
   34MOL   C11610742   0.940   3.586   4.650  0.3613  0.3666  0.2374
   34MOL   C11710743   0.979   3.641   4.528 -0.8492  0.3623  0.3111
   34MOL  Cl11810744   1.024   3.809   4.519 -0.1056  0.0308  0.0573
   34MOL   C11910745   0.986   3.558   4.412  0.0750  0.4544 -0.9719
   34MOL   C12010746   0.952   3.420   4.424  0.5639 -0.3581  0.6406
   34MOL   C12110747   0.907   3.369   4.543  0.2782  0.0972 -0.2413
   34MOL   C12210748   0.973   3.402   4.911  0.1727  0.7040 -0.6063
   34MOL   H12310749   0.857   3.289   4.778 -0.7721 -0.3229 -0.2792
   34MOL   H12410750   0.937   3.636   4.746  0.6637 -3.6469  2.4549
   34MOL   H12510751   1.015   3.609   4.322  0.8465  2.0462  0.1494
   34MOL   H12610752   0.960   3.357   4.337 -0.6669 -0.7904  0.8275
   34MOL   H12710753   0.904   3.262   4.556 -0.9736  0.3035  1.3247
   34MOL   H12810754   0.959   3.502   4.952  0.4378  0.6008 -0.2661
   34MOL   H12910755   0.953   3.324   4.984 -0.1202 -0.4181 -1.8517
   34MOL   C13010756   1.127   3.404   4.874  0.8211  0.2144 -0.0813
   34MOL   C13110757   1.208   3.460   4.988  0.0175 -0.2727 -0.0256
   34MOL   C13210758   1.244   3.379   5.095  0.4884 -0.8274  0.4044
   34MOL   C13310759   1.307   3.437   5.200  1.1200 -0.4552  0.1519
   34MOL  Cl13410760   1.355   3.331   5.331 -0.1283 -0.0247 -0.0500
   34MOL   C13510761   1.349   3.573   5.198 -0.3333  0.3098 -0.3760
   34MOL   C13610762   1.314   3.657   5.092 -0.2233 -0.3863  0.2407
   34MOL   C13710763   1.244   3.595   4.986  0.0081  0.0213 -0.4560
   34MOL   C13810764   1.179   3.266   4.827  0.1225  0.0789  0.1441
   34MOL   H13910765   1.137   3.477   4.793 -3.7255  0.0708 -0.8565
   34MOL   H14010766   1.224   3.273   5.099 -1.5598 -0.5590 -1.8105
   34MOL   H14110767   1.390   3.621   5.286 -0.0794 -0.3358 -0.1384
   34MOL   H14210768   1.357   3.756   5.094  0.9269 -0.8978  1.3542
   34MOL   H14310769   1.208   3.653   4.902  0.2286  0.2312 -0.4079
   34MOL   H14410770   1.159   3.190   4.902  0.0640 -0.2295 -0.1833
   34MOL   H14510771   1.105   3.242   4.750 -0.0473 -1.1469  0.6796
   34MOL   C14610772   1.323   3.258   4.776  0.2894  1.1262 -0.0897
   34MOL   C14710773   1.341   3.350   4.657 -0.0940 -0.0414 -0.3468
   34MOL   C14810774   1.400   3.477   4.668 -0.0019 -0.1888 -0.2092
   34MOL   C14910775   1.423   3.562   4.550 -0.6442  0.1810 -0.6567
   34MOL  Cl15010776   1.513   3.710   4.570 -0.4144 -0.2896 -0.3369
   34MOL   C15110777   1.379   3.518   4.425 -0.5295 -0.6661 -0.0366
   34MOL   C15210778   1.323   3.392   4.417  0.6507  0.1632 -0.4341
   34MOL   C15310779   1.299   3.308   4.527 -0.3104 -0.7761  0.0506
   34MOL   C15410780   1.443   3.256   4.882 -0.1753 -0.1531 -0.4704
   34MOL   H15510781   1.328   3.157   4.734 -1.2831  0.9611  0.0914
   34MOL   H15610782   1.449   3.515   4.757  2.1917 -1.0785 -0.9962
   34MOL   H15710783   1.387   3.571   4.331 -0.8646 -1.8897 -0.7638
   34MOL   H15810784   1.291   3.368   4.316  0.4966  0.0924 -0.3682
   34MOL   H15910785   1.263   3.207   4.515 -1.3971 -0.2581 -1.1315
   34MOL   H16010786   1.444   3.351   4.934 -0.6065 -0.6605  0.4714
   34MOL   H16110787   1.412   3.181   4.954  0.5985 -0.0510 -0.0271
   34MOL   C16210788   1.588   3.215   4.835  0.6270 -0.9152  0.6980
   34MOL   C16310789   1.669   3.326   4.764  0.4252  0.2807  0.2434
   34MOL   C16410790   1.716   3.307   4.631 -0.2694  0.1195 -0.3532
   34MOL   C16510791   1.759   3.412   4.552  0.5032  0.2015 -0.0036
   34MOL  Cl16610792   1.814   3.376   4.388 -0.5444  0.0088  0.2339
   34MOL   C16710793   1.775   3.540   4.609  0.1254  0.0529  0.1107
   34MOL   C16810794   1.741   3.560   4.748 -0.1855  0.1123 -0.3758
   34MOL   C16910795   1.686   3.451   4.824 -0.8959 -0.1784 -0.2589
   34MOL   C17010796   1.666   3.158   4.958 -0.4966 -0.3864 -0.1695
   34MOL   H17110797   1.580   3.133   4.764  1.5628 -0.3888 -0.0157
   34MOL   H17210798   1.716   3.214   4.576  0.9551  0.5545 -1.0945
   34MOL   H17310799   1.822   3.624   4.559 -0.1215  1.8389  2.7661
   34MOL   H17410800   1.758   3.657   4.793 -0.5686  0.6491 -1.3662
   34MOL   H17510801   1.652   3.471   4.924 -1.1090  0.2307 -0.4127
   34MOL   H17610802   1.702   3.242   5.019  0.1523 -0.8749  0.1325
   34MOL   H17710803   1.599   3.113   5.031  0.1398  0.9278  1.2572
   34MOL   C17810804   1.792   3.082   4.928 -0.5658  0.1855 -0.1067
   34MOL   C17910805   1.881   3.079   5.051  0.2703 -0.3044 -0.2348
   34MOL   C18010806   2.016   3.109   5.038  0.1026  0.7516  0.2059
   34MOL   C18110807   2.094   3.138   5.150 -0.6996 -0.0145 -0.5244
   34MOL  Cl18210808   2.260   3.183   5.130 -0.2477 -0.3396  0.1588
   34MOL   C18310809   2.048   3.110   5.281 -0.0392 -0.2469 -0.2316
   34MOL   C18410810   1.916   3.064   5.294  0.3073 -0.4831 -0.6850
   34MOL   C18510811   1.834   3.051   5.180  1.1155 -0.3141 -0.2631
   34MOL   C18610812   1.765   2.936   4.897  0.1787  0.0054 -0.1953
   34MOL   H18710813   1.835   3.132   4.842 -0.2216  0.6941  0.3524
   34MOL   H18810814   2.065   3.123   4.943  0.4087  0.1162  0.2652
   34MOL   H18910815   2.118   3.117   5.363  1.5054  0.9179 -1.5964
   34MOL   H19010816   1.877   3.044   5.392 -3.1690 -0.2570 -1.9524
   34MOL   H19110817   1.732   3.020   5.201 -0.7490  5.9555  1.0455
   34MOL   H19210818   1.724   2.892   4.988 -2.6335  1.5579 -0.6579
   34MOL   H19310819   1.683   2.920   4.827  1.2458 -2.2033 -0.9855
   34MOL   C19410820   1.879   2.850   4.848  0.3981 -0.0400 -0.1767
   34MOL   C19510821   1.881   2.712   4.914  0.4268  0.4825  0.1851
   34MOL   C19610822   1.807   2.603   4.862  0.1780 -0.2420  0.0827
   34MOL   C19710823   1.830   2.473   4.913  0.2651  0.4020  0.1324
   34MOL  Cl19810824   1.772   2.334   4.831  0.5828 -0.1012 -0.3292
   34MOL   C19910825   1.894   2.453   5.036  0.1378 -0.5488  0.7874
   34MOL   C20010826   1.961   2.565   5.095  0.4462  0.0230  0.1119
   34MOL   C20110827   1.957   2.690   5.033  0.7003 -0.4581 -0.7892
   34MOL   C20210828   1.898   2.839   4.694 -0.0655  0.0539 -0.5407
   34MOL   H20310829   1.974   2.883   4.890  0.3689 -1.7829  1.3318
   34MOL   H20410830   1.752   2.624   4.771  1.4623  1.9645 -0.2360
   34MOL   H20510831   1.894   2.354   5.079  2.5408 -0.3592  1.2857
   34MOL   H20610832   2.018   2.550   5.185  0.3717  0.9586  0.3204
   34MOL   H20710833   2.027   2.765   5.067  1.4804 -0.7920 -1.6383
   34MOL   H20810834   1.960   2.751   4.680  2.2923  1.4828  0.7729
   34MOL   H20910835   1.802   2.819   4.645  0.5095 -1.8025 -0.9453
   34MOL   C21010836   1.979   2.954   4.626 -0.3042 -0.0432  0.1283
   34MOL   C21110837   2.118   2.966   4.676 -0.5638  0.2779 -0.2058
   34MOL   C21210838   2.208   2.859   4.699  0.0738 -0.3516 -0.1051
   34MOL   C21310839   2.336   2.876   4.755 -0.2030  0.3828  0.1123
   34MOL  Cl21410840   2.432   2.742   4.777  0.1930  0.3202 -0.2685
   34MOL   C21510841   2.377   3.007   4.786  0.0216  0.4841 -1.0329
   34MOL   C21610842   2.288   3.118   4.767 -0.6452  1.0657 -0.1599
   34MOL   C21710843   2.164   3.097   4.711 -0.0061 -0.7871  0.2654
   34MOL   C21810844   1.972   2.925   4.478  0.5988 -0.8925  0.4400
   34MOL   H21910845   1.927   3.049   4.642  2.5712  1.7286 -0.7055
   34MOL   H22010846   2.170   2.760   4.677  0.7546 -0.8577  0.9471
   34MOL   H22110847   2.479   3.022   4.817 -1.2757  2.8558  2.4383
   34MOL   H22210848   2.327   3.214   4.796 -0.5398  1.0763 -0.3350
   34MOL   H22310849   2.101   3.184   4.697 -1.6807 -2.0123 -0.0590
   34MOL   H22410850   1.997   2.820   4.464  0.4453 -1.2236  2.5659
   34MOL   H22510851   1.874   2.954   4.438  1.3489  0.1694 -0.6788
   34MOL   C22610852   2.074   2.992   4.392 -0.4437 -0.7046 -0.3429
   34MOL   C22710853   2.058   2.927   4.255  0.3073  0.5217 -0.5886
   34MOL   C22810854   1.948   2.952   4.179  0.2050 -0.5667 -0.1238
   34MOL   C22910855   1.934   2.900   4.054 -0.4365 -0.1226 -0.4096
   34MOL  Cl23010856   1.792   2.933   3.954 -0.3491  0.2783 -0.4644
   34MOL   C23110857   2.018   2.797   4.013  0.0138 -0.1802 -0.3709
   34MOL   C23210858   2.128   2.761   4.093 -0.2414 -0.5406  0.5207
   34MOL   C23310859   2.151   2.828   4.216  0.3396  0.1966  0.1747
   34MOL   C23410860   2.070   3.145   4.386 -0.2889 -0.0988 -0.5403
   34MOL   H23510861   2.175   2.967   4.426 -0.5093  2.5795  2.4617
   34MOL   H23610862   1.873   3.024   4.207 -1.1913 -1.6784 -0.9424
   34MOL   H23710863   2.005   2.741   3.922 -1.0362  0.6283 -0.7222
   34MOL   H23810864   2.201   2.688   4.061 -0.4453 -0.4986 -0.0521
   34MOL   H23910865   2.234   2.795   4.277  0.8082  0.2250 -0.4489
   34MOL   H24010866   1.983   3.178   4.328 -0.3942  0.6933  0.0580
   34MOL   H24110867   2.041   3.182   4.485 -1.6499  2.5216 -1.8501
   34MOL   C24210868   2.203   3.220   4.356  0.6310  0.0736  0.8155
   34MOL   C24310869   2.234   3.211   4.209  0.1726  0.0842  0.9700
   34MOL   C24410870   2.167   3.273   4.100 -0.0573 -0.7735 -0.2575
   34MOL   C24510871   2.209   3.251   3.967  0.0125 -0.3415  0.3004
   34MOL  Cl24610872   2.125   3.322   3.837  0.3389 -0.4356  0.2568
   34MOL   C24710873   2.318   3.166   3.943  0.3186  0.0191 -0.1731
   34MOL   C24810874   2.379   3.101   4.049  0.0916  0.8441 -0.1336
   34MOL   C24910875   2.334   3.116   4.182 -0.3061 -0.3850  0.6594
   34MOL   C25010876   2.181   3.368   4.391  0.1024 -0.2723 -0.3226
   34MOL   H25110877   2.290   3.189   4.414 -0.2141 -0.1830  1.9541
   34MOL   H25210878   2.086   3.342   4.113 -0.2040 -1.0116  0.1203
   34MOL   H25310879   2.357   3.153   3.843 -1.7095  1.5177 -1.1968
   34MOL   H25410880   2.463   3.036   4.033  0.4928  0.4259  3.2323
   34MOL   H25510881   2.381   3.069   4.267  1.0790  2.9529  1.8594
   34MOL   H25610882   2.100   3.406   4.328  0.4768  2.2209  0.6496
   34MOL   H25710883   2.143   3.374   4.493  1.1002  0.9952 -0.0154
   34MOL   C25810884   2.311   3.450   4.375 -0.6476  0.2236  1.3457
   34MOL   C25910885   2.277   3.593   4.354 -0.1407 -0.2883  0.1784
   34MOL   C26010886   2.240   3.638   4.224 -0.3381 -0.2440 -0.1247
   34MOL   C26110887   2.203   3.770   4.201 -0.2618 -0.0435 -0.1018
   34MOL  Cl26210888   2.178   3.826   4.041  0.0108  0.0637 -0.0028
   34MOL   C26310889   2.175   3.851   4.306  0.7921  0.4193 -0.4776
   34MOL   C26410890   2.194   3.809   4.440  0.0149  0.3204 -0.6451
   34MOL   C26510891   2.246   3.676   4.466 -0.3850  0.5739  0.1520
   34MOL   C26610892   2.418   3.418   4.481 -0.0281 -0.4837  0.4290
   34MOL   H26710893   2.368   3.414   4.290 -0.3886 -0.9246  2.0010
   34MOL   H26810894   2.249   3.581   4.134  0.7090 -0.6103  0.2059
   34MOL   H26910895   2.149   3.955   4.292 -2.1246 -0.2209 -0.0837
   34MOL   H27010896   2.174   3.878   4.520 -2.1417  0.1142 -0.9820
   34MOL   H27110897   2.279   3.645   4.564 -2.2957  0.6206  0.8249
   34MOL   H27210898   2.385   3.439   4.583  0.9712 -0.0116  0.6560
   34MOL   H27310899   2.435   3.310   4.480 -0.8309 -0.6085 -0.1279
   34MOL   C27410900   2.558   3.482   4.467  0.2853  0.5689 -0.3609
   34MOL   C27510901   2.618   3.504   4.605  0.7552 -0.1997 -0.3313
   34MOL   C27610902   2.683   3.625   4.631  0.2078 -0.2126  0.8371
   34MOL   C27710903   2.738   3.654   4.759  0.8517  0.1685  0.0136
   34MOL  Cl27810904   2.831   3.788   4.809 -0.4234 -0.2062 -0.2304
   34MOL   C27910905   2.716   3.553   4.863 -0.4240 -1.2092 -0.5432
   34MOL   C28010906   2.648   3.435   4.835  0.3887 -0.0451 -0.8507
   34MOL   C28110907   2.614   3.402   4.702 -0.1223  0.4795 -0.5331
   34MOL   C28210908   2.645   3.381   4.392  0.6036  0.1790 -0.1203
   34MOL   H28310909   2.558   3.573   4.408 -0.2577  0.2788 -0.8071
   34MOL   H28410910   2.690   3.698   4.552 -0.6552 -1.9984 -0.9274
   34MOL   H28510911   2.751   3.576   4.963 -0.4183 -0.8446 -0.6250
   34MOL   H28610912   2.638   3.365   4.916 -1.8015 -0.2975 -1.3087
   34MOL   H28710913   2.565   3.306   4.689  1.5540 -0.2651 -1.5199
   34MOL   H28810914   2.653   3.286   4.446  0.7253  1.4739  2.1879
   34MOL   H28910915   2.592   3.329   4.311  1.1466 -0.6016  0.0132
   34MOL   C29010916   2.777   3.447   4.340  0.0972  0.7398  0.1425
   34MOL   C29110917   2.890   3.342   4.346 -0.2037  0.3977  0.3054
   34MOL   C29210918   2.905   3.241   4.250  0.1407  0.2684 -0.2201
   34MOL   C29310919   3.015   3.150   4.262  0.4305  0.1301  0.2402
   34MOL  Cl29410920   3.034   3.024   4.145 -0.0962  0.2947  0.0743
   34MOL   C29510921   3.111   3.163   4.365 -0.6040 -0.2104  0.5387
   34MOL   C29610922   3.082   3.253   4.471  0.1205  0.0032  0.4722
   34MOL   C29710923   2.973   3.344   4.462  0.5424 -0.0546 -0.9861
   34MOL   C29810924   2.761   3.514   4.201 -0.0168 -0.8330 -0.0821
   34MOL   H29910925   2.794   3.517   4.421 -0.8166 -0.3314  1.2782
   34MOL   H30010926   2.833   3.245   4.170 -0.7238  0.1547  0.5377
   34MOL   H30110927   3.188   3.087   4.367 -0.0174  0.3821  0.3052
   34MOL   H30210928   3.148   3.261   4.556 -0.8291  0.7748  1.1562
   34MOL   H30310929   2.958   3.418   4.539  0.7083  0.5920 -1.5761
   34MOL   H30410930   2.762   3.444   4.118 -0.6334 -1.5229  0.4855
   34MOL   H30510931   2.660   3.557   4.200 -0.8640 -2.8008  0.0315
   34MOL   C30610932   2.859   3.633   4.178  0.0766 -0.6891 -0.4978
   34MOL   C30710933   2.835   3.750   4.281  0.2362 -0.0536  0.1147
   34MOL   C30810934   2.929   3.783   4.384  0.2941 -0.6706 -0.4839
   34MOL   C30910935   2.898   3.891   4.477  0.1116  0.2851  0.9439
   34MOL  Cl31010936   3.020   3.945   4.590 -0.6431  0.0948  0.4562
   34MOL   C31110937   2.774   3.959   4.470 -0.0009  1.4473  0.3064
   34MOL   C31210938   2.683   3.932   4.365 -0.0610  0.4094  0.2632
   34MOL   C31310939   2.715   3.827   4.274 -0.7688 -0.8005 -0.5200
   34MOL   C31410940   3.003   3.593   4.167  0.1013  0.2102 -0.7890
   34MOL   H31510941   2.826   3.682   4.087 -2.1611  0.1261  0.6993
   34MOL   H31610942   3.023   3.731   4.390 -0.0401 -1.5076 -2.1822
   34MOL   H31710943   2.758   4.042   4.537 -1.4476  3.2112 -2.1441
   34MOL   H31810944   2.588   3.984   4.354 -0.8444 -1.1795 -0.6041
   34MOL   H31910945   2.645   3.803   4.195 -1.6532 -1.9606  0.5891
   34MOL   H32010946   3.019   3.500   4.113 -0.6433 -0.6374  0.4173
   34MOL   H32110947   3.060   3.671   4.118  1.4772  1.1219  2.1379
   34MOL   H32210948   3.038   3.574   4.269 -0.4679 -0.5034 -0.7186
   35MOL     C110949   4.037   7.314   5.281 -0.0075  0.3257  0.0375
   35MOL     C210950   3.907   7.328   5.204  0.0789 -0.1853 -0.4465
   35MOL     C310951   3.908   7.371   5.073 -0.3861  0.4128  0.1855
   35MOL     C410952   3.785   7.394   5.005  0.1416  0.1106 -1.1619
   35MOL    Cl510953   3.784   7.444   4.843 -0.2148 -0.1287 -0.0135
   35MOL     C610954   3.660   7.397   5.074 -0.8091  0.0613 -0.3926
   35MOL     C710955   3.653   7.345   5.210  0.2792  0.4133  0.3032
   35MOL     C810956   3.780   7.313   5.263  0.4834 -0.3234 -0.3982
   35MOL     C910957   4.147   7.245   5.197 -0.4549 -0.1453  0.2147
   35MOL    H1010958   4.027   7.265   5.378 -0.4438  0.0045 -0.1682
   35MOL    H1110959   4.002   7.393   5.024 -0.7661 -2.0670 -1.7600
   35MOL    H1210960   3.572   7.419   5.015  0.3274 -0.8957 -2.5007
   35MOL    H1310961   3.563   7.333   5.268  0.6331  0.1889  0.8077
   35MOL    H1410962   3.784   7.271   5.363  0.1857  0.4915 -0.0418
   35MOL    H1510963   4.180   7.306   5.113  0.0037 -0.4029  0.2029
   35MOL    H1610964   4.239   7.245   5.256 -0.6296  2.9321  0.5686
   35MOL    H1710965   4.074   7.410   5.316  1.0065  0.0549 -0.2690
   35MOL    C1810966   4.117   7.104   5.145  0.0208  0.2390  0.1713
   35MOL    C1910967   4.216   7.050   5.041  0.2420 -0.0697 -0.4739
   35MOL    C2010968   4.352   7.029   5.077  0.0341 -0.3062  0.1942
   35MOL    C2110969   4.438   6.991   4.981  0.0475 -0.1814 -0.5742
   35MOL   Cl2210970   4.608   6.978   5.012  0.6587 -0.5555 -0.4647
   35MOL    C2310971   4.391   6.938   4.861 -0.4439 -0.0999 -0.2570
   35MOL    C2410972   4.260   6.954   4.826 -0.2774 -0.0257 -0.5003
   35MOL    C2510973   4.172   7.023   4.912 -0.3484 -0.1660  0.5718
   35MOL    C2610974   4.095   7.010   5.272  0.1039 -0.4307 -0.4598
   35MOL    H2710975   4.022   7.096   5.091  0.2052  0.3800 -0.1796
   35MOL    H2810976   4.391   7.049   5.176  0.3691 -0.3993  0.0824
   35MOL    H2910977   4.465   6.912   4.787  1.0556  2.1815  0.3866
   35MOL    H3010978   4.226   6.921   4.728 -1.1442 -0.5238 -0.0366
   35MOL    H3110979   4.072   7.049   4.879  0.8480  0.4201 -2.7854
   35MOL    H3210980   4.153   6.918   5.278 -0.1594 -0.5954 -0.4048
   35MOL    H3310981   4.135   7.063   5.358 -2.9176  1.3462 -0.0588
   35MOL    C3410982   3.950   6.968   5.300 -0.1506 -0.2292 -0.5172
   35MOL    C3510983   3.884   6.872   5.200  0.0134 -0.3690  0.3973
   35MOL    C3610984   3.935   6.740   5.181  0.1210  0.0211  0.7275
   35MOL    C3710985   3.872   6.654   5.091 -0.0919  0.2274 -0.3107
   35MOL   Cl3810986   3.921   6.487   5.076  0.4439  0.2715 -0.1805
   35MOL    C3910987   3.759   6.695   5.017  0.3627  0.3833 -0.0012
   35MOL    C4010988   3.720   6.834   5.020 -0.8733  0.6219  0.5967
   35MOL    C4110989   3.779   6.917   5.118 -0.2549  0.6936  0.1008
   35MOL    C4210990   3.932   6.911   5.441 -0.1648 -0.1692 -0.2260
   35MOL    H4310991   3.895   7.063   5.296 -2.1983 -1.4388 -1.8835
   35MOL    H4410992   4.011   6.706   5.250 -0.1723  0.3703  1.2343
   35MOL    H4510993   3.719   6.637   4.936  0.6784  1.2090 -0.7647
   35MOL    H4610994   3.634   6.877   4.970 -0.7689  2.1589  1.7003
   35MOL    H4710995   3.744   7.020   5.121  0.9910  1.1631 -1.1549
   35MOL    H4810996   3.853   6.838   5.454 -0.5494  0.2471 -0.2209
   35MOL    H4910997   4.023   6.852   5.452 -0.9458 -1.3758 -0.1947
   35MOL    C5010998   3.921   7.007   5.564  0.1790 -0.1266  0.0877
   35MOL    C5110999   3.791   7.082   5.578  0.1048  0.0152  0.5395
   35MOL    C5211000   3.774   7.182   5.679  0.6399 -0.6071  0.6200
   35MOL    C5311001   3.651   7.243   5.703 -0.1757  0.2785  0.0726
   35MOL   Cl5411002   3.637   7.363   5.831 -0.1957 -0.1435 -0.2667
   35MOL    C5511003   3.546   7.226   5.612 -1.3014 -0.4140 -0.7167
   35MOL    C5611004   3.565   7.136   5.501 -0.5713  0.4713  0.7047
   35MOL    C5711005   3.678   7.055   5.487 -0.1037 -0.1182 -0.3226
   35MOL    C5811006   3.963   6.930   5.700  0.1032 -0.2664 -0.5974
   35MOL    H5911007   3.985   7.093   5.545  0.2134 -0.3095 -0.6384
   35MOL    H6011008   3.860   7.210   5.738  1.8547 -1.7112 -0.5896
   35MOL    H6111009   3.456   7.282   5.634 -0.8845 -0.1493  0.3307
   35MOL    H6211010   3.480   7.139   5.435 -0.7696  0.9545  0.9741
   35MOL    H6311011   3.677   6.979   5.410 -0.9218 -1.1543  0.6903
   35MOL    H6411012   3.966   6.998   5.785  0.5696 -1.3822  0.2911
   35MOL    H6511013   3.881   6.861   5.717  0.2122 -0.4976 -0.9950
   35MOL    C6611014   4.100   6.848   5.718 -0.2134 -0.4108 -0.7340
   35MOL    C6711015   4.222   6.914   5.658 -0.2762  0.0110  0.3512
   35MOL    C6811016   4.290   6.847   5.552  0.0167  0.1512 -0.0032
   35MOL    C6911017   4.405   6.907   5.503  0.4560  0.3989  0.2060
   35MOL   Cl7011018   4.494   6.832   5.370 -0.1684  0.1094 -0.0664
   35MOL    C7111019   4.446   7.035   5.549  0.5804  0.5760  0.2963
   35MOL    C7211020   4.374   7.099   5.657  0.2231  0.6337  0.2122
   35MOL    C7311021   4.264   7.037   5.714  0.5409 -0.3280  0.1784
   35MOL    C7411022   4.127   6.800   5.866 -0.6165  0.3486 -0.4127
   35MOL    H7511023   4.084   6.763   5.652 -1.5903 -0.9435  0.2780
   35MOL    H7611024   4.251   6.756   5.510 -1.4127  0.7242  0.0478
   35MOL    H7711025   4.532   7.081   5.502  0.2277 -0.2258 -1.1467
   35MOL    H7811026   4.396   7.194   5.704 -0.5992  0.3854  1.1293
   35MOL    H7911027   4.211   7.091   5.791  2.5069  1.1750  0.5034
   35MOL    H8011028   4.154   6.885   5.927 -3.4518  1.3744 -0.5133
   35MOL    H8111029   4.035   6.783   5.922  0.8181 -0.4304  1.7875
   35MOL    C8211030   4.240   6.699   5.878  0.2074  0.0440  0.4754
   35MOL    C8311031   4.339   6.730   5.988  0.2580 -0.3007  0.0416
   35MOL    C8411032   4.310   6.720   6.124 -0.0680  0.0876  0.6764
   35MOL    C8511033   4.401   6.766   6.224 -0.5815  0.1486 -0.4371
   35MOL   Cl8611034   4.376   6.757   6.387 -0.1637  0.5418 -0.0880
   35MOL    C8711035   4.516   6.827   6.182 -0.0331  0.5804 -0.3918
   35MOL    C8811036   4.544   6.845   6.046  0.6019 -0.2017  0.7235
   35MOL    C8911037   4.454   6.801   5.950  0.0436 -0.2671  0.3327
   35MOL    C9011038   4.180   6.555   5.880  0.4316  0.1921  0.0274
   35MOL    H9111039   4.300   6.697   5.787 -0.5574 -0.6594 -0.0316
   35MOL    H9211040   4.220   6.672   6.160 -1.6208  0.8546 -2.0134
   35MOL    H9311041   4.586   6.866   6.255  0.9221 -1.8026  0.0251
   35MOL    H9411042   4.641   6.884   6.021  0.5805 -1.1811 -0.9293
   35MOL    H9511043   4.482   6.806   5.846 -0.7497 -2.1849  0.0004
   35MOL    H9611044   4.145   6.528   5.980  0.3891 -1.5189 -0.4404
   35MOL    H9711045   4.095   6.568   5.813 -1.0344  1.6677  2.0940
   35MOL    C9811046   4.266   6.439   5.826  0.0867 -0.3937  0.5597
   35MOL    C9911047   4.392   6.411   5.907  0.2098 -0.3832  0.3648
   35MOL   C10011048   4.517   6.449   5.859  0.2394  0.1532  1.0075
   35MOL   C10111049   4.623   6.432   5.948 -0.7421  0.6018  0.5344
   35MOL  Cl10211050   4.779   6.473   5.894 -0.3328  0.0173  0.3080
   35MOL   C10311051   4.619   6.393   6.078 -0.2682 -0.2375 -0.2623
   35MOL   C10411052   4.496   6.352   6.127 -0.2127 -0.1200 -0.1672
   35MOL   C10511053   4.385   6.353   6.038  0.3522  0.4241  0.3572
   35MOL   C10611054   4.184   6.309   5.803 -0.0198 -0.4795  0.1074
   35MOL   H10711055   4.303   6.473   5.729 -1.0849 -4.0501 -1.2854
   35MOL   H10811056   4.541   6.490   5.761  0.8647 -1.2089  0.5754
   35MOL   H10911057   4.711   6.397   6.134 -0.0051 -0.9282 -0.6425
   35MOL   H11011058   4.478   6.310   6.225 -2.1458 -0.2783 -0.5625
   35MOL   H11111059   4.293   6.309   6.075  1.1650 -2.3332 -0.7402
   35MOL   H11211060   4.249   6.221   5.800  1.0975  0.2986  0.9775
   35MOL   H11311061   4.110   6.300   5.882  0.9058 -0.7686  0.9594
   35MOL   C11411062   4.111   6.301   5.668 -0.8361 -0.3934 -0.2725
   35MOL   C11511063   4.193   6.349   5.552 -0.0487 -0.0074  0.2236
   35MOL   C11611064   4.315   6.286   5.520  0.1692 -0.6405 -0.4850
   35MOL   C11711065   4.404   6.340   5.428  0.0445  0.1592 -0.6830
   35MOL  Cl11811066   4.561   6.268   5.408 -0.2977  0.6376  0.2451
   35MOL   C11911067   4.361   6.458   5.355  0.4349 -0.2395 -0.3996
   35MOL   C12011068   4.232   6.506   5.371  0.0098 -0.3351  0.1556
   35MOL   C12111069   4.138   6.449   5.464 -0.1817 -0.5119  0.7215
   35MOL   C12211070   4.057   6.151   5.659  0.2863 -0.5257  0.5374
   35MOL   H12311071   4.024   6.366   5.672 -0.1525  0.6840 -2.1641
   35MOL   H12411072   4.353   6.207   5.583 -1.0739  0.2016  1.3781
   35MOL   H12511073   4.427   6.507   5.286 -0.8651  0.5911 -1.0832
   35MOL   H12611074   4.209   6.592   5.310  0.7878 -0.0025  0.3332
   35MOL   H12711075   4.045   6.496   5.491 -0.7527 -1.8957  1.1823
   35MOL   H12811076   4.141   6.083   5.649  0.2070 -0.7108  1.0958
   35MOL   H12911077   3.993   6.123   5.743 -1.2562  1.0018 -0.0902
   35MOL   C13011078   3.967   6.134   5.533  0.3417 -0.7053  0.1544
   35MOL   C13111079   3.942   5.983   5.522 -0.6121 -0.5732  0.1333
   35MOL   C13211080   3.819   5.926   5.565 -0.0775 -0.6196 -0.1275
   35MOL   C13311081   3.787   5.797   5.532 -0.1526 -0.2006  0.8344
   35MOL  Cl13411082   3.637   5.725   5.585 -0.0122  0.0104  0.2106
   35MOL   C13511083   3.880   5.722   5.456 -0.4778  0.4331 -0.3456
   35MOL   C13611084   4.007   5.773   5.419  0.3344 -0.4146  0.1759
   35MOL   C13711085   4.036   5.904   5.457 -0.9495 -0.1683 -0.1820
   35MOL   C13811086   3.843   6.230   5.525 -0.5826 -0.1338 -0.5438
   35MOL   H13911087   4.026   6.166   5.447  0.3080 -2.5354 -0.5541
   35MOL   H14011088   3.746   5.992   5.611 -0.4757  0.7461 -2.5986
   35MOL   H14111089   3.866   5.617   5.431 -0.9932  0.6424 -0.9561
   35MOL   H14211090   4.080   5.709   5.373  0.4335  1.5634 -2.5934
   35MOL   H14311091   4.120   5.968   5.435 -2.0218  0.9505 -1.0241
   35MOL   H14411092   3.787   6.230   5.618 -1.1504 -1.8044 -0.8712
   35MOL   H14511093   3.884   6.330   5.517 -0.5468 -0.1636 -0.7390
   35MOL   C14611094   3.745   6.211   5.405 -0.3636  0.2987 -0.4247
   35MOL   C14711095   3.637   6.318   5.405 -0.7105  0.4274 -0.8089
   35MOL   C14811096   3.678   6.452   5.380  0.1470 -0.3057  0.6117
   35MOL   C14911097   3.581   6.555   5.397  0.1646  0.6714  0.5887
   35MOL  Cl15011098   3.628   6.718   5.382 -0.1189  0.2232 -0.3031
   35MOL   C15111099   3.448   6.528   5.428 -0.1240  0.0249 -0.2062
   35MOL   C15211100   3.407   6.391   5.449 -0.3101 -0.0634 -0.3885
   35MOL   C15311101   3.504   6.292   5.442 -0.1332  0.0488 -0.3098
   35MOL   C15411102   3.809   6.207   5.267 -0.1183 -0.6951  0.7835
   35MOL   H15511103   3.697   6.116   5.428  1.8518 -0.6434  0.4075
   35MOL   H15611104   3.782   6.468   5.358  0.4755  2.3143  3.7353
   35MOL   H15711105   3.369   6.602   5.434 -1.2616 -1.2911  1.8096
   35MOL   H15811106   3.303   6.368   5.463 -0.6136  1.1642 -0.5812
   35MOL   H15911107   3.471   6.192   5.468 -1.0675  0.1852 -0.9528
   35MOL   H16011108   3.763   6.280   5.202 -0.7625 -1.5848  0.2326
   35MOL   H16111109   3.916   6.229   5.270 -0.7030  2.4029 -0.3504
   35MOL   C16211110   3.795   6.079   5.179  0.1769 -0.3825 -0.1364
   35MOL   C16311111   3.657   6.009   5.189 -0.4306 -0.3143 -0.3835
   35MOL   C16411112   3.533   6.081   5.170  0.3567 -0.0010  0.1167
   35MOL   C16511113   3.411   6.010   5.161  0.1106 -0.0395  0.5487
   35MOL  Cl16611114   3.260   6.091   5.127 -0.7342 -0.3636 -0.3771
   35MOL   C16711115   3.420   5.870   5.187 -0.2343 -0.0579 -0.1187
   35MOL   C16811116   3.540   5.800   5.209  0.1049  0.0456 -0.6509
   35MOL   C16911117   3.663   5.867   5.211  0.1935  0.3419 -0.4932
   35MOL   C17011118   3.835   6.097   5.033  0.2662 -0.7926 -0.9982
   35MOL   H17111119   3.857   5.997   5.215  0.7846  0.1453  0.0430
   35MOL   H17211120   3.529   6.186   5.149  0.2789 -0.1592 -0.6696
   35MOL   H17311121   3.339   5.799   5.193 -0.3257  0.2516  2.7964
   35MOL   H17411122   3.534   5.692   5.216 -0.7500  0.1235 -0.1055
   35MOL   H17511123   3.759   5.818   5.220  1.0877  2.3033  0.7466
   35MOL   H17611124   3.825   6.002   4.980  0.4989 -2.3349  1.6257
   35MOL   H17711125   3.765   6.166   4.987  2.5845  0.4966 -2.7412
   35MOL   C17811126   3.981   6.149   5.000  0.0297 -0.1050 -0.1610
   35MOL   C17911127   4.085   6.072   5.086  0.3043  0.2997  0.3148
   35MOL   C18011128   4.109   5.934   5.064  0.6250 -0.6789 -0.3636
   35MOL   C18111129   4.202   5.868   5.143 -0.1059 -0.4931 -0.0754
   35MOL  Cl18211130   4.213   5.701   5.141  0.0212  0.1080  0.0495
   35MOL   C18311131   4.283   5.937   5.233  0.2892 -0.4452 -0.4705
   35MOL   C18411132   4.278   6.080   5.245  0.6696  0.8174  0.1912
   35MOL   C18511133   4.177   6.143   5.167  0.0510 -0.4928 -0.0297
   35MOL   C18611134   4.011   6.138   4.853  0.3815 -0.1012  0.1220
   35MOL   H18711135   3.975   6.254   5.031  0.1692  0.1932 -1.1198
   35MOL   H18811136   4.048   5.878   4.995 -0.2931  1.1732 -1.1092
   35MOL   H18911137   4.357   5.889   5.296  0.1970 -0.6864 -0.5456
   35MOL   H19011138   4.352   6.136   5.299  0.7033  0.2367  0.7497
   35MOL   H19111139   4.171   6.250   5.183  3.6263 -0.3998  1.0959
   35MOL   H19211140   4.118   6.145   4.836  0.3343 -0.7946 -0.4953
   35MOL   H19311141   3.960   6.047   4.821 -1.3597  1.1892 -0.8631
   35MOL   C19411142   3.959   6.258   4.777  0.0161  0.6249 -0.0383
   35MOL   C19511143   4.062   6.368   4.756  1.1040 -0.9463  0.6192
   35MOL   C19611144   4.200   6.351   4.714 -0.3146 -0.0248  1.1725
   35MOL   C19711145   4.291   6.460   4.692 -0.3302 -0.0506  0.6568
   35MOL  Cl19811146   4.453   6.428   4.644 -0.2620 -0.0646  0.3250
   35MOL   C19911147   4.246   6.594   4.714 -0.0013  0.0973 -0.2069
   35MOL   C20011148   4.114   6.609   4.771  0.3893  1.0295 -0.4671
   35MOL   C20111149   4.022   6.503   4.773 -0.8965 -0.4397 -0.0591
   35MOL   C20211150   3.903   6.217   4.642 -0.3911 -0.0796  0.2639
   35MOL   H20311151   3.881   6.317   4.826  0.1741  0.6415  0.1956
   35MOL   H20411152   4.249   6.255   4.713 -0.4171 -0.0782  1.3228
   35MOL   H20511153   4.319   6.673   4.708 -0.6789  0.9467  2.2825
   35MOL   H20611154   4.077   6.704   4.805 -0.8283  1.2602 -2.3903
   35MOL   H20711155   3.920   6.530   4.795 -1.1894 -0.1639 -1.7191
   35MOL   H20811156   3.916   6.296   4.568 -0.7044 -1.2013 -0.9918
   35MOL   H20911157   3.969   6.137   4.607  0.2502  1.0594 -1.1990
   35MOL   C21011158   3.754   6.171   4.639  0.1172  0.7338 -0.3425
   35MOL   C21111159   3.658   6.287   4.674 -0.1298 -0.0861  0.0122
   35MOL   C21211160   3.658   6.410   4.602  0.9372 -0.3401 -0.0830
   35MOL   C21311161   3.557   6.507   4.627 -0.1595 -0.5399  0.0152
   35MOL  Cl21411162   3.532   6.634   4.517 -0.3390 -0.1037 -0.2644
   35MOL   C21511163   3.470   6.487   4.736  0.3784 -1.2460  0.4139
   35MOL   C21611164   3.471   6.373   4.811  1.0208  0.0190  0.5855
   35MOL   C21711165   3.571   6.276   4.782 -0.1926  0.6913  0.1469
   35MOL   C21811166   3.716   6.109   4.507  0.4317  0.1995  0.2731
   35MOL   H21911167   3.739   6.096   4.716  1.5860  0.3988 -0.3712
   35MOL   H22011168   3.714   6.432   4.512 -1.1405  0.0857 -1.3147
   35MOL   H22111169   3.390   6.559   4.746 -0.6557 -2.4154  0.6246
   35MOL   H22211170   3.411   6.353   4.899 -0.8722  1.9187 -0.2206
   35MOL   H22311171   3.563   6.180   4.832 -1.3850  0.0526 -1.2236
   35MOL   H22411172   3.704   6.192   4.437  1.4726  0.4382  0.3570
   35MOL   H22511173   3.809   6.062   4.473 -0.6482  0.1264 -2.7599
   35MOL   C22611174   3.593   6.005   4.512 -0.2563 -0.4609 -0.0834
   35MOL   C22711175   3.454   6.079   4.523 -0.2485  0.6674 -0.6666
   35MOL   C22811176   3.366   6.049   4.631 -0.3879 -0.4062 -0.8695
   35MOL   C22911177   3.248   6.122   4.636 -0.0709  0.9743 -0.3847
   35MOL  Cl23011178   3.140   6.097   4.773 -0.4360 -0.1434 -0.3660
   35MOL   C23111179   3.204   6.212   4.538 -0.2417 -0.0463 -0.2109
   35MOL   C23211180   3.294   6.240   4.431 -0.1152  0.5545  0.2347
   35MOL   C23311181   3.420   6.175   4.427  0.0195  0.4453 -0.0399
   35MOL   C23411182   3.600   5.909   4.387  0.0553  0.2930 -0.0453
   35MOL   H23511183   3.607   5.941   4.599  0.4496  2.2788  1.8879
   35MOL   H23611184   3.389   5.976   4.707  0.9006 -0.0820 -0.9275
   35MOL   H23711185   3.111   6.265   4.554 -0.9453 -1.0695 -0.8145
   35MOL   H23811186   3.268   6.314   4.356  0.7862 -0.0307 -0.6634
   35MOL   H23911187   3.478   6.192   4.337  1.3969  0.9655  0.9311
   35MOL   H24011188   3.629   5.961   4.295 -0.0686 -0.0445 -0.2790
   35MOL   H24111189   3.685   5.846   4.414  0.1059  0.8467  1.0734
   35MOL   C24211190   3.465   5.831   4.363 -0.2200  0.5073 -0.3718
   35MOL   C24311191   3.473   5.760   4.225  0.1793  0.2184  0.2250
   35MOL   C24411192   3.496   5.619   4.210 -0.0922 -0.1126  0.2805
   35MOL   C24511193   3.501   5.562   4.082 -0.1333  0.5874  0.8316
   35MOL  Cl24611194   3.523   5.391   4.050  0.1488 -0.7611  0.0544
   35MOL   C24711195   3.494   5.650   3.968  0.2303 -0.0446 -0.2333
   35MOL   C24811196   3.479   5.791   3.985 -0.3786 -0.8048  0.1288
   35MOL   C24911197   3.468   5.843   4.110 -0.7206  0.3297 -0.3942
   35MOL   C25011198   3.413   5.741   4.475  0.0647  0.1972  0.4562
   35MOL   H25111199   3.388   5.903   4.336 -0.2467  0.5765 -0.1133
   35MOL   H25211200   3.504   5.558   4.298 -1.3707  0.4490  0.7985
   35MOL   H25311201   3.495   5.604   3.870 -0.7965  2.4014 -1.4437
   35MOL   H25411202   3.482   5.852   3.896 -1.5398 -1.6858 -0.5237
   35MOL   H25511203   3.467   5.951   4.115 -1.6902  0.2170  2.2405
   35MOL   H25611204   3.466   5.647   4.460  0.9430  1.0057 -1.7573
   35MOL   H25711205   3.438   5.776   4.575  0.8920 -2.0064  1.0377
   35MOL   C25811206   3.266   5.698   4.452 -0.1705  0.1822  0.4770
   35MOL   C25911207   3.228   5.598   4.561 -0.0205 -0.3347  0.4049
   35MOL   C26011208   3.240   5.646   4.691  0.9969  0.2437  0.2046
   35MOL   C26111209   3.226   5.556   4.802 -0.8718  0.3772 -0.4134
   35MOL  Cl26211210   3.269   5.603   4.960 -0.4513 -0.1966 -0.2650
   35MOL   C26311211   3.197   5.419   4.772 -0.1037  0.0598 -0.1660
   35MOL   C26411212   3.169   5.380   4.640  0.7820 -0.2310  0.2147
   35MOL   C26511213   3.204   5.469   4.538  1.0022 -0.8159  0.1787
   35MOL   C26611214   3.166   5.822   4.439 -0.8263  0.6608  0.0469
   35MOL   H26711215   3.273   5.641   4.359  1.7389 -1.5341  1.6019
   35MOL   H26811216   3.271   5.748   4.710 -0.9546  1.0647 -0.8852
   35MOL   H26911217   3.191   5.347   4.852  0.0313  1.8161  1.4601
   35MOL   H27011218   3.142   5.277   4.625 -0.4789  0.2296 -0.7818
   35MOL   H27111219   3.201   5.428   4.437 -1.4899 -0.9616  0.2751
   35MOL   H27211220   3.151   5.874   4.534  0.8423 -2.2393  1.9735
   35MOL   H27311221   3.204   5.889   4.362 -1.0515  1.6222  0.7621
   35MOL   C27411222   3.018   5.771   4.410 -0.3064 -0.4261  0.0921
   35MOL   C27511223   2.913   5.878   4.447 -0.0546  0.5939 -0.1871
   35MOL   C27611224   2.851   5.963   4.350  0.1115 -0.4896  0.4436
   35MOL   C27711225   2.755   6.058   4.381 -0.9898  0.1516  0.1125
   35MOL  Cl27811226   2.670   6.153   4.261  0.2377 -0.0981 -0.0596
   35MOL   C27911227   2.718   6.078   4.513  0.1706  0.4251  0.2774
   35MOL   C28011228   2.768   5.994   4.615 -0.7354  0.3082  0.1256
   35MOL   C28111229   2.867   5.900   4.582  0.4132  0.0641 -0.2442
   35MOL   C28211230   3.006   5.702   4.277  0.4114 -0.3641 -0.2010
   35MOL   H28311231   2.993   5.685   4.473  2.4621 -0.2437  1.5117
   35MOL   H28411232   2.882   5.956   4.247 -1.7086 -2.1036 -0.0136
   35MOL   H28511233   2.643   6.150   4.542 -0.4293 -0.7437  1.7065
   35MOL   H28611234   2.739   5.996   4.719  4.0396  1.4774  1.5534
   35MOL   H28711235   2.896   5.829   4.658 -0.2867 -0.2762 -0.2887
   35MOL   H28811236   3.009   5.783   4.203 -0.1523  0.5305  0.7301
   35MOL   H28911237   3.094   5.640   4.261 -0.1583 -1.9026  2.3764
   35MOL   C29011238   2.877   5.620   4.254 -0.5830  0.2678 -0.4819
   35MOL   C29111239   2.846   5.606   4.100  0.4933  0.9066  0.3234
   35MOL   C29211240   2.760   5.700   4.036 -0.6514 -0.4667 -0.3620
   35MOL   C29311241   2.737   5.690   3.897  0.0383 -0.0063  0.0198
   35MOL  Cl29411242   2.618   5.797   3.819  0.2329 -0.0028 -0.0804
   35MOL   C29511243   2.808   5.591   3.819  0.1858  0.6611 -0.7917
   35MOL   C29611244   2.893   5.495   3.882 -0.2745  0.1051  0.7812
   35MOL   C29711245   2.911   5.503   4.021 -1.2549  0.0107  0.2613
   35MOL   C29811246   2.884   5.485   4.332  0.3131 -0.1675  0.3798
   35MOL   H29911247   2.796   5.672   4.306 -0.3962  0.1961 -0.1115
   35MOL   H30011248   2.701   5.773   4.089 -0.4202 -0.1993 -0.4674
   35MOL   H30111249   2.791   5.601   3.713  0.5113  0.0455 -0.9025
   35MOL   H30211250   2.944   5.432   3.812 -1.5301  0.4706 -0.5018
   35MOL   H30311251   2.980   5.433   4.066 -0.8228  1.0478  1.2258
   35MOL   H30411252   2.978   5.439   4.302 -0.1134 -0.2335 -0.8625
   35MOL   H30511253   2.891   5.506   4.439 -1.0182  0.6527  0.3119
   35MOL   C30611254   2.767   5.390   4.310  0.2318 -0.8009  0.2162
   35MOL   C30711255   2.821   5.250   4.344 -0.4540  0.2362 -0.7321
   35MOL   C30811256   2.827   5.202   4.477  0.1998  0.6601  0.2952
   35MOL   C30911257   2.869   5.068   4.503 -0.8688  0.4617  0.0653
   35MOL  Cl31011258   2.852   5.000   4.660  0.3877 -0.2550 -0.1838
   35MOL   C31111259   2.933   4.993   4.399  0.4414  0.2681  0.3382
   35MOL   C31211260   2.942   5.048   4.269 -0.2738 -0.9806  0.1424
   35MOL   C31311261   2.883   5.174   4.242 -0.2285 -0.5890  0.8661
   35MOL   C31411262   2.641   5.431   4.388  0.1684 -0.5871 -0.4066
   35MOL   H31511263   2.744   5.385   4.204 -0.3938 -0.2106  0.3179
   35MOL   H31611264   2.780   5.252   4.561 -0.3898 -0.8341  0.8580
   35MOL   H31711265   2.974   4.894   4.412 -1.1978 -0.1738  2.5365
   35MOL   H31811266   2.984   5.002   4.181 -3.8303  1.5782 -3.0618
   35MOL   H31911267   2.882   5.205   4.138  0.1763 -2.6593  0.2102
   35MOL   H32011268   2.595   5.520   4.346 -0.3724 -0.1915  0.9956
   35MOL   H32111269   2.564   5.356   4.370 -1.2776  1.0826 -1.3376
   35MOL   H32211270   2.659   5.442   4.495  3.6376 -0.7569 -0.9286
   36MOL     C111271   0.000   5.597   0.648 -0.0341  0.4906  0.0161
   36MOL     C211272   0.059   5.683   0.539 -0.5547  0.4268 -0.8592
   36MOL     C311273   0.150   5.785   0.568 -0.6424 -0.2732  0.4823
   36MOL     C411274   0.214   5.863   0.470  0.3263  0.0610  0.0720
   36MOL    Cl511275   0.310   6.002   0.510 -0.3736 -0.4469  0.0395
   36MOL     C611276   0.192   5.834   0.331 -0.3022  0.1660  0.3210
   36MOL     C711277   0.099   5.730   0.302 -0.0772  0.1420 -0.0585
   36MOL     C811278   0.035   5.653   0.400  1.0788 -0.4061 -0.0719
   36MOL     C911279   8.313   5.656   0.721 -0.3104  0.0387  0.2184
   36MOL    H1011280   0.069   5.564   0.726  1.2008  1.0697 -0.8085
   36MOL    H1111281   0.163   5.797   0.675 -1.3729 -3.4227  0.9945
   36MOL    H1211282   0.240   5.890   0.252  0.2088 -0.3140  0.2869
   36MOL    H1311283   0.083   5.712   0.196 -1.6598 -0.3403  0.2529
   36MOL    H1411284   8.392   5.585   0.371 -0.6288  0.9589  1.2728
   36MOL    H1511285   8.335   5.758   0.751  1.0611 -0.4213  0.7991
   36MOL    H1611286   8.238   5.653   0.642 -0.8929 -0.1240  0.7762
   36MOL    H1711287   8.405   5.505   0.599  0.5425 -0.2555  1.0297
   36MOL    C1811288   8.269   5.575   0.848  0.4259  0.1574 -0.1288
   36MOL    C1911289   8.143   5.636   0.910 -0.1430  0.0443  0.2184
   36MOL    C2011290   8.139   5.678   1.043 -0.3208  0.4525  0.3072
   36MOL    C2111291   8.029   5.745   1.090  0.0962 -0.0014  0.5573
   36MOL   Cl2211292   8.003   5.760   1.263  0.0797 -0.2242 -0.0360
   36MOL    C2311293   7.921   5.777   1.006 -0.1998  0.1096 -0.4184
   36MOL    C2411294   7.929   5.744   0.871  0.4058  0.7238 -0.3589
   36MOL    C2511295   8.038   5.669   0.820  0.1376  0.4468 -0.8494
   36MOL    C2611296   8.255   5.422   0.835  0.1312 -0.0408 -0.2661
   36MOL    H2711297   8.342   5.591   0.927 -0.6393 -0.6916  1.0491
   36MOL    H2811298   8.225   5.657   1.106 -0.0641 -0.2826 -0.2881
   36MOL    H2911299   7.843   5.841   1.043 -1.7823 -1.1932 -1.4500
   36MOL    H3011300   7.855   5.788   0.806 -1.5425 -0.9906  0.6078
   36MOL    H3111301   8.040   5.642   0.715  1.8082 -0.6041 -0.5804
   36MOL    H3211302   8.186   5.414   0.751  3.1425 -0.8548 -2.7769
   36MOL    H3311303   8.348   5.377   0.799  1.0874 -0.4986  2.5866
   36MOL    C3411304   8.211   5.329   0.946  0.4553  0.4395 -0.3764
   36MOL    C3511305   8.190   5.193   0.880  0.4929 -0.1972  0.0725
   36MOL    C3611306   8.287   5.096   0.867 -0.9257 -0.0210  0.7855
   36MOL    C3711307   8.264   4.973   0.797  0.0147  0.3209 -0.1016
   36MOL   Cl3811308   8.394   4.863   0.784 -0.1268  0.2462 -0.1992
   36MOL    C3911309   8.141   4.949   0.726  1.3119 -0.2974  0.4129
   36MOL    C4011310   8.043   5.051   0.737  0.1431  0.3626  0.6742
   36MOL    C4111311   8.064   5.171   0.808  0.5509  0.4904  0.6307
   36MOL    C4211312   8.295   5.333   1.070  0.3042  0.4380  0.0631
   36MOL    H4311313   8.112   5.364   0.975  1.5577  1.4809  2.2501
   36MOL    H4411314   8.388   5.106   0.905 -0.5049 -2.3525  0.3823
   36MOL    H4511315   8.127   4.856   0.673 -0.6938 -0.2993  0.8915
   36MOL    H4611316   7.954   5.047   0.676  1.4316  1.8362 -1.3823
   36MOL    H4711317   7.979   5.236   0.799 -0.1122 -0.4965 -0.3311
   36MOL    H4811318   8.389   5.291   1.036 -1.2731 -3.4821  0.3545
   36MOL    H4911319   8.320   5.432   1.109 -1.3247  1.0318 -0.3591
   36MOL    C5011320   8.244   5.230   1.182  0.4419  0.0105  0.3096
   36MOL    C5111321   8.363   5.195   1.275 -0.1767  0.0635 -0.9268
   36MOL    C5211322   0.024   5.297   1.300  0.4397  0.2405  0.1486
   36MOL    C5311323   0.135   5.280   1.387 -0.1314  0.3388  0.5871
   36MOL   Cl5411324   0.256   5.407   1.391 -0.1093 -0.2023  0.3142
   36MOL    C5511325   0.161   5.151   1.437  0.1839  0.3526 -0.1091
   36MOL    C5611326   0.069   5.051   1.406 -0.1137  1.2039  0.2654
   36MOL    C5711327   8.387   5.069   1.328 -0.1835 -0.1480 -0.0599
   36MOL    C5811328   8.126   5.295   1.261  0.3710  0.0332 -0.1723
   36MOL    H5911329   8.209   5.138   1.136 -1.0199 -0.1794  1.7469
   36MOL    H6011330   0.012   5.399   1.268 -1.1915 -0.2528 -0.8594
   36MOL    H6111331   0.244   5.125   1.502  0.4007  0.7567 -0.2214
   36MOL    H6211332   0.086   4.955   1.452  0.3549  0.5952 -1.1732
   36MOL    H6311333   8.314   4.991   1.313 -0.6969  0.1009  1.1272
   36MOL    H6411334   8.152   5.300   1.367 -1.1603  3.9188  0.1008
   36MOL    H6511335   8.110   5.400   1.239  1.7402  0.5084  0.9700
   36MOL    C6611336   7.991   5.212   1.262  0.6720  0.0653  0.0745
   36MOL    C6711337   7.902   5.272   1.371  0.5487 -0.4384  0.9545
   36MOL    C6811338   7.836   5.187   1.463 -0.2987 -0.1233 -0.1217
   36MOL    C6911339   7.746   5.237   1.554 -0.1862  0.0992 -0.7248
   36MOL   Cl7011340   7.688   5.132   1.681  0.0524 -0.1917  0.0427
   36MOL    C7111341   7.703   5.371   1.551 -0.6590  0.1833 -0.4581
   36MOL    C7211342   7.766   5.459   1.463  0.5576 -0.2371  0.6880
   36MOL    C7311343   7.860   5.406   1.369 -0.0003 -0.2180  0.1674
   36MOL    C7411344   7.920   5.208   1.129 -0.1300  0.6613  0.6127
   36MOL    H7511345   8.017   5.114   1.301 -1.4787 -0.4409  0.2928
   36MOL    H7611346   7.873   5.086   1.466 -0.1840 -0.0487  1.8990
   36MOL    H7711347   7.630   5.405   1.625 -0.1056 -1.8033  1.0315
   36MOL    H7811348   7.729   5.560   1.458 -1.8468 -1.0278  1.8454
   36MOL    H7911349   7.888   5.477   1.292 -2.2936  1.2858  0.6814
   36MOL    H8011350   7.921   5.312   1.097  1.1953  2.0116  4.7581
   36MOL    H8111351   7.987   5.149   1.066  2.1582  1.1439  2.5460
   36MOL    C8211352   7.775   5.155   1.129  0.2783 -0.4092  0.4300
   36MOL    C8311353   7.681   5.236   1.035  0.1339 -0.0438 -0.8797
   36MOL    C8411354   7.565   5.306   1.077 -0.4638  0.1861  0.0973
   36MOL    C8511355   7.478   5.363   0.987 -0.1628 -0.4363  0.1825
   36MOL   Cl8611356   7.343   5.454   1.046  0.1537 -0.1556  0.0102
   36MOL    C8711357   7.513   5.367   0.849  0.1632 -0.1366 -0.4550
   36MOL    C8811358   7.626   5.293   0.802  0.8226 -0.3968 -0.0698
   36MOL    C8911359   7.712   5.231   0.898  0.0801 -0.0570  0.2002
   36MOL    C9011360   7.759   5.000   1.120 -0.0679 -0.0803 -0.5631
   36MOL    H9111361   7.731   5.170   1.228 -1.1328 -0.2404 -0.2057
   36MOL    H9211362   7.541   5.294   1.182 -0.0950 -0.3335  0.1233
   36MOL    H9311363   7.442   5.409   0.779 -0.6500  0.6546  0.7912
   36MOL    H9411364   7.648   5.281   0.697 -0.7917 -1.6040 -0.3013
   36MOL    H9511365   7.801   5.181   0.863  1.2204  0.6040  2.0661
   36MOL    H9611366   7.756   4.971   1.015 -1.1044 -1.3887 -0.1961
   36MOL    H9711367   7.853   4.957   1.154  0.9693  2.7027  0.2460
   36MOL    C9811368   7.649   4.930   1.203 -0.1343 -0.2438  0.5172
   36MOL    C9911369   7.516   5.002   1.206 -0.5675 -0.6405  0.0429
   36MOL   C10011370   7.442   4.999   1.089 -0.5456  0.1456  0.1495
   36MOL   C10111371   7.327   5.077   1.074 -0.1525  0.9334  0.3916
   36MOL  Cl10211372   7.256   5.084   0.912 -0.3875  0.1165 -0.0410
   36MOL   C10311373   7.279   5.140   1.193  0.1114 -0.1060 -0.3086
   36MOL   C10411374   7.349   5.131   1.315  0.2251  0.0844  0.5436
   36MOL   C10511375   7.474   5.067   1.326 -0.0238 -0.4893  0.2262
   36MOL   C10611376   7.637   4.778   1.164 -0.0082 -0.0127 -0.0591
   36MOL   H10711377   7.685   4.936   1.306 -1.8983 -0.3471  1.1503
   36MOL   H10811378   7.481   4.938   1.009 -3.6695 -1.6620 -0.0526
   36MOL   H10911379   7.185   5.193   1.188 -1.1112 -2.2385 -0.5689
   36MOL   H11011380   7.311   5.191   1.396  0.7575  2.6730 -1.0701
   36MOL   H11111381   7.541   5.066   1.411  3.0135  0.7642 -2.0495
   36MOL   H11211382   7.542   4.736   1.197  0.6273 -1.3662  0.1195
   36MOL   H11311383   7.632   4.762   1.057  1.4627  0.8282 -0.2567
   36MOL   C11411384   7.743   4.693   1.229  0.2669  0.0646 -0.1554
   36MOL   C11511385   7.764   4.716   1.378 -0.2464 -0.5915  0.2236
   36MOL   C11611386   7.659   4.705   1.468  0.4890 -1.2762  0.0228
   36MOL   C11711387   7.676   4.728   1.605 -0.4690  0.3698  0.4873
   36MOL  Cl11811388   7.545   4.728   1.716 -0.4093 -0.1523 -0.1116
   36MOL   C11911389   7.803   4.765   1.656  0.9101  0.2758  0.6522
   36MOL   C12011390   7.910   4.775   1.564 -0.1101  0.1461  0.2605
   36MOL   C12111391   7.892   4.752   1.427  0.3359 -0.7292 -0.4590
   36MOL   C12211392   7.728   4.537   1.198 -0.3103  0.1775 -0.1988
   36MOL   H12311393   7.833   4.727   1.177 -2.1138  3.3522 -2.3075
   36MOL   H12411394   7.566   4.668   1.427  0.7635 -0.5303 -1.3162
   36MOL   H12511395   7.816   4.782   1.762  0.1764 -0.5469  0.8745
   36MOL   H12611396   8.008   4.802   1.599 -0.0519  0.4320 -0.1134
   36MOL   H12711397   7.980   4.762   1.365 -1.5309  1.4174 -2.9063
   36MOL   H12811398   7.809   4.491   1.254 -0.3112 -2.1998 -2.0397
   36MOL   H12911399   7.637   4.502   1.247  0.0563  2.4712  2.2526
   36MOL   C13011400   7.740   4.472   1.055  0.5853  0.6636  0.3304
   36MOL   C13111401   7.890   4.443   1.020 -0.2407  0.1252 -0.8640
   36MOL   C13211402   7.952   4.519   0.920  0.0632 -0.2235 -0.2095
   36MOL   C13311403   8.084   4.476   0.884  0.4647  0.4595  0.4459
   36MOL  Cl13411404   8.153   4.558   0.751  0.0613 -0.6739  0.1620
   36MOL   C13511405   8.147   4.372   0.959 -0.1769 -0.5168 -0.3229
   36MOL   C13611406   8.086   4.303   1.061 -0.4463 -0.2755 -0.2498
   36MOL   C13711407   7.953   4.338   1.092 -0.5418  0.1793 -0.5833
   36MOL   C13811408   7.658   4.340   1.042  0.5376 -0.0480 -0.0019
   36MOL   H13911409   7.695   4.539   0.983 -0.6615  0.5949  1.0310
   36MOL   H14011410   7.902   4.606   0.880 -0.5595  0.5355  2.1345
   36MOL   H14111411   8.250   4.347   0.939  0.6485  1.6199  1.0982
   36MOL   H14211412   8.141   4.226   1.114 -0.6635 -0.8443 -0.8503
   36MOL   H14311413   7.909   4.302   1.184  0.7979  2.0718  0.8578
   36MOL   H14411414   7.693   4.272   0.965 -3.9486  1.5124 -3.6442
   36MOL   H14511415   7.680   4.282   1.132 -0.4023 -0.4237 -0.0074
   36MOL   C14611416   7.502   4.352   1.048  0.4355  0.0906 -0.5211
   36MOL   C14711417   7.447   4.417   0.921 -0.8737  0.1150 -0.0776
   36MOL   C14811418   7.466   4.357   0.794 -0.5051 -0.3499  0.2849
   36MOL   C14911419   7.406   4.424   0.682 -0.4624  0.4934  0.3363
   36MOL  Cl15011420   7.445   4.359   0.522 -0.1953 -0.0743  0.0070
   36MOL   C15111421   7.345   4.548   0.695  0.2830 -0.3389 -0.2267
   36MOL   C15211422   7.329   4.604   0.821  0.2595  0.2074 -0.6401
   36MOL   C15311423   7.377   4.538   0.935  0.0909  0.8552 -0.4597
   36MOL   C15411424   7.432   4.220   1.078 -0.6214  0.1143 -0.6323
   36MOL   H15511425   7.478   4.413   1.135 -3.5887 -0.9402 -0.7750
   36MOL   H15611426   7.512   4.259   0.786 -0.2385  0.0386 -4.1332
   36MOL   H15711427   7.311   4.602   0.608 -1.7316  0.3768  0.9822
   36MOL   H15811428   7.288   4.704   0.821  0.9008  0.4795  1.3160
   36MOL   H15911429   7.363   4.578   1.034  1.7044  0.8033 -0.1944
   36MOL   H16011430   7.324   4.232   1.079 -1.0136 -2.9901  0.1527
   36MOL   H16111431   7.440   4.152   0.993 -0.8869 -0.0024 -0.5639
   36MOL   C16211432   7.469   4.149   1.212  0.6948  0.3547 -0.7575
   36MOL   C16311433   7.460   4.243   1.331 -0.5075  1.1529 -0.1141
   36MOL   C16411434   7.338   4.284   1.381 -0.4556  0.5931  0.4828
   36MOL   C16511435   7.325   4.365   1.492 -0.7705  0.1288  0.3910
   36MOL  Cl16611436   7.173   4.423   1.545 -0.0707 -0.2262  0.0333
   36MOL   C16711437   7.441   4.406   1.557  0.1187 -0.1204 -0.2479
   36MOL   C16811438   7.564   4.381   1.501 -1.1272  0.4478 -0.4669
   36MOL   C16911439   7.578   4.298   1.387  0.1311  0.0828  0.6004
   36MOL   C17011440   7.365   4.030   1.226  0.0474 -0.7458 -0.1486
   36MOL   H17111441   7.571   4.111   1.204  0.0954 -2.4326  3.4126
   36MOL   H17211442   7.244   4.261   1.331 -0.3323  2.7447 -0.8457
   36MOL   H17311443   7.439   4.463   1.649  2.1937 -0.1608 -0.1626
   36MOL   H17411444   7.655   4.416   1.548  0.0606  1.5303 -3.4559
   36MOL   H17511445   7.675   4.277   1.344  0.4803 -1.8103  2.2674
   36MOL   H17611446   7.265   4.074   1.234  0.8299  0.9392  0.6765
   36MOL   H17711447   7.368   3.962   1.141 -1.5968 -2.2472  0.9469
   36MOL   C17811448   7.368   3.955   1.354  0.3965 -0.4403 -0.1692
   36MOL   C17911449   7.268   3.840   1.355  0.3388 -1.3109 -0.5511
   36MOL   C18011450   7.261   3.746   1.248 -0.5821  0.0748  0.4679
   36MOL   C18111451   7.166   3.642   1.242  0.6608 -0.3929  0.1805
   36MOL  Cl18211452   7.151   3.541   1.106  0.2686  0.2464  0.0526
   36MOL   C18311453   7.072   3.635   1.345 -0.3444 -0.3107  0.7675
   36MOL   C18411454   7.079   3.720   1.454  1.5058 -0.0573 -0.1418
   36MOL   C18511455   7.173   3.829   1.457  0.8403  0.1346 -0.0351
   36MOL   C18611456   7.504   3.895   1.385  0.2221  0.2835 -0.2281
   36MOL   H18711457   7.339   4.020   1.436 -2.4466 -0.5925 -0.9912
   36MOL   H18811458   7.337   3.762   1.173 -0.8296 -2.6026 -0.3936
   36MOL   H18911459   6.990   3.565   1.332 -1.4032  1.2056 -0.8007
   36MOL   H19011460   7.013   3.710   1.539 -1.1747 -0.6255 -2.2240
   36MOL   H19111461   7.179   3.897   1.540  0.8872  1.0898 -0.8015
   36MOL   H19211462   7.540   3.834   1.302 -0.7688 -2.0154  0.9889
   36MOL   H19311463   7.574   3.975   1.408  1.9839 -0.9027 -1.3785
   36MOL   C19411464   7.522   3.802   1.508 -0.0099 -0.3932 -0.5517
   36MOL   C19511465   7.654   3.723   1.518  0.1390  0.0589  0.2517
   36MOL   C19611466   7.649   3.581   1.513  0.0314 -0.4789 -0.0024
   36MOL   C19711467   7.766   3.505   1.525 -0.2411  0.9323 -0.4431
   36MOL  Cl19811468   7.765   3.335   1.543 -0.2940 -0.2682  0.2332
   36MOL   C19911469   7.888   3.568   1.516  0.4534 -0.8544  0.0159
   36MOL   C20011470   7.896   3.712   1.506  0.2048 -0.7241  0.4803
   36MOL   C20111471   7.781   3.788   1.509  0.4093 -0.0129 -0.2613
   36MOL   C20211472   7.494   3.868   1.646 -0.2676  0.3272 -0.2912
   36MOL   H20311473   7.436   3.736   1.498  0.5716 -0.9072 -2.4111
   36MOL   H20411474   7.550   3.539   1.521  0.8630 -2.5441 -0.3747
   36MOL   H20511475   7.979   3.510   1.505  0.6964 -0.9418  2.2337
   36MOL   H20611476   7.993   3.756   1.493 -0.7744  0.9485 -1.5968
   36MOL   H20711477   7.771   3.894   1.493 -1.8740  0.3138  2.7173
   36MOL   H20811478   7.577   3.936   1.665 -0.2930 -0.1213  1.4502
   36MOL   H20911479   7.398   3.920   1.640  0.1275  0.8886 -2.2243
   36MOL   C21011480   7.478   3.770   1.765 -0.4985  0.1431 -0.0565
   36MOL   C21111481   7.472   3.858   1.893 -0.4659  0.0599 -0.6609
   36MOL   C21211482   7.592   3.899   1.949  0.2702 -0.4985 -0.1001
   36MOL   C21311483   7.592   3.969   2.076 -0.1677 -0.3178  0.7395
   36MOL  Cl21411484   7.738   4.020   2.156  0.2265 -0.3009 -0.0117
   36MOL   C21511485   7.466   4.011   2.128 -0.0435  0.1130 -0.0851
   36MOL   C21611486   7.340   3.974   2.071 -0.2296 -0.0643 -0.0940
   36MOL   C21711487   7.347   3.899   1.954  0.0724  0.4832  0.8988
   36MOL   C21811488   7.363   3.665   1.754 -0.1549 -0.2822  0.8869
   36MOL   H21911489   7.571   3.714   1.775 -1.5905 -1.5637  0.6505
   36MOL   H22011490   7.684   3.873   1.900 -0.4215 -0.0687 -1.6725
   36MOL   H22111491   7.462   4.072   2.217 -3.8128 -0.5943  0.3326
   36MOL   H22211492   7.250   4.019   2.108  0.3568  2.8421 -2.0012
   36MOL   H22311493   7.259   3.872   1.898  0.5555 -0.9642  0.8316
   36MOL   H22411494   7.271   3.722   1.748  1.2190  2.1068  1.9727
   36MOL   H22511495   7.370   3.611   1.659  3.7703 -0.2356  1.0692
   36MOL   C22611496   7.350   3.558   1.863  0.2739  0.9810 -0.2170
   36MOL   C22711497   7.227   3.465   1.870 -0.5693 -0.1141 -0.2059
   36MOL   C22811498   7.165   3.427   1.746 -0.3069 -0.3122  0.1727
   36MOL   C22911499   7.062   3.331   1.749  0.7479 -0.4775  0.1103
   36MOL  Cl23011500   6.995   3.276   1.605 -0.3737  0.0940 -0.4383
   36MOL   C23111501   7.020   3.276   1.868  0.4138  0.3367 -0.5707
   36MOL   C23211502   7.085   3.308   1.994  0.5735 -0.1981  0.4494
   36MOL   C23311503   7.182   3.412   1.997 -0.1396 -0.2000 -0.2703
   36MOL   C23411504   7.476   3.469   1.869 -0.6310 -0.2230 -0.2573
   36MOL   H23511505   7.337   3.617   1.954 -2.8627 -0.9996  0.6929
   36MOL   H23611506   7.222   3.464   1.663  2.3179  0.0062  2.0577
   36MOL   H23711507   6.948   3.196   1.854 -0.7732  1.2850 -0.0412
   36MOL   H23811508   7.041   3.268   2.085 -1.2329  1.8356  0.5339
   36MOL   H23911509   7.228   3.440   2.090  0.1729  1.1801 -0.8215
   36MOL   H24011510   7.443   3.370   1.898 -1.5186  0.9073  2.7481
   36MOL   H24111511   7.515   3.465   1.767  2.0405  1.4868  0.6351
   36MOL   C24211512   7.579   3.511   1.968  0.6819 -0.0512 -0.3218
   36MOL   C24311513   7.534   3.493   2.110  0.2956 -0.3512  0.5886
   36MOL   C24411514   7.506   3.361   2.161  0.0901  0.4086  0.1412
   36MOL   C24511515   7.467   3.344   2.295 -0.3118 -0.1749  0.1005
   36MOL  Cl24611516   7.458   3.187   2.366 -0.2219 -0.2571 -0.1217
   36MOL   C24711517   7.451   3.456   2.381 -0.3559 -0.3107 -0.6137
   36MOL   C24811518   7.464   3.585   2.332  0.4915 -0.8770  0.1063
   36MOL   C24911519   7.504   3.606   2.195  0.2213 -0.1260 -0.2423
   36MOL   C25011520   7.708   3.441   1.934  0.1891  0.7252 -0.7534
   36MOL   H25111521   7.590   3.619   1.958  4.1187 -0.3029  0.1173
   36MOL   H25211522   7.519   3.267   2.109 -2.9659 -0.5432  0.9866
   36MOL   H25311523   7.433   3.439   2.487  0.6256  0.9661 -0.2358
   36MOL   H25411524   7.460   3.673   2.395 -0.6268  0.0336 -1.1972
   36MOL   H25511525   7.524   3.710   2.172  0.2165 -0.0944 -0.1057
   36MOL   H25611526   7.707   3.339   1.972  0.8301  1.1159  0.3177
   36MOL   H25711527   7.717   3.422   1.827  1.6951 -0.7183 -0.3934
   36MOL   C25811528   7.843   3.507   1.962 -0.3320  0.9369  0.2317
   36MOL   C25911529   7.865   3.522   2.113 -0.1362 -0.9305  0.6763
   36MOL   C26011530   7.827   3.641   2.175 -0.2216  0.3972  0.3252
   36MOL   C26111531   7.847   3.652   2.316 -0.4672  0.1835  0.2608
   36MOL  Cl26211532   7.781   3.786   2.402 -0.0545 -0.1964 -0.3585
   36MOL   C26311533   7.908   3.546   2.386 -0.7441 -0.3126 -0.7416
   36MOL   C26411534   7.938   3.427   2.322 -0.0643 -0.5068 -0.1309
   36MOL   C26511535   7.918   3.415   2.186 -0.5599 -0.1814  0.5033
   36MOL   C26611536   7.960   3.430   1.886 -0.1958 -0.2724  0.6139
   36MOL   H26711537   7.850   3.602   1.908  0.9967 -0.6180 -2.4307
   36MOL   H26811538   7.777   3.722   2.123 -0.7127 -0.5587 -0.7078
   36MOL   H26911539   7.918   3.550   2.493  0.2341  1.0432 -0.8762
   36MOL   H27011540   7.986   3.346   2.375 -0.8729 -2.1141 -1.8041
   36MOL   H27111541   7.946   3.321   2.142  0.3006  0.3327 -0.0555
   36MOL   H27211542   7.964   3.329   1.926 -0.9875 -0.5694 -0.0437
   36MOL   H27311543   7.938   3.426   1.779 -1.6931  3.3046  0.7017
   36MOL   C27411544   8.103   3.488   1.907  0.7949 -0.5677 -0.5941
   36MOL   C27511545   8.205   3.379   1.881  0.1080 -0.0485 -0.1916
   36MOL   C27611546   8.250   3.302   1.990  0.9122 -0.2876  0.0636
   36MOL   C27711547   8.345   3.197   1.978  0.1761 -0.2081  0.2958
   36MOL  Cl27811548   8.406   3.125   2.119 -0.1240  0.4205  0.3461
   36MOL   C27911549   8.403   3.166   1.849  0.0467  0.5510  0.3377
   36MOL   C28011550   8.357   3.238   1.741 -0.2828  0.5085  0.0398
   36MOL   C28111551   8.258   3.346   1.753 -0.0698 -0.5898  0.3861
   36MOL   C28211552   8.131   3.617   1.824  0.5454  0.7708 -0.1877
   36MOL   H28311553   8.105   3.519   2.012 -1.6835  3.8054 -1.7116
   36MOL   H28411554   8.213   3.330   2.088 -2.2037 -2.3152 -0.4598
   36MOL   H28511555   0.044   3.091   1.833 -2.2259 -1.2963 -2.3607
   36MOL   H28611556   8.402   3.219   1.644  1.7576  0.9113  0.8653
   36MOL   H28711557   8.219   3.396   1.665 -0.9640  1.0591  1.6852
   36MOL   H28811558   8.120   3.587   1.720 -0.8893  1.8009 -0.3357
   36MOL   H28911559   8.049   3.688   1.835 -0.5156 -0.2773 -1.1857
   36MOL   C29011560   8.259   3.687   1.858  0.0761 -0.4440 -0.4851
   36MOL   C29111561   8.352   3.694   1.738  0.0987 -0.4072  0.3081
   36MOL   C29211562   0.022   3.599   1.738 -0.6183 -0.1558  0.9936
   36MOL   C29311563   0.114   3.599   1.630  0.6223 -0.8048  0.3025
   36MOL  Cl29411564   0.247   3.488   1.637  0.1936 -0.1894  0.2972
   36MOL   C29511565   0.111   3.702   1.530  1.0395  0.0461  0.4816
   36MOL   C29611566   0.008   3.800   1.542  0.0780 -0.1831 -0.3110
   36MOL   C29711567   8.343   3.793   1.639  0.4796  0.0372 -0.3078
   36MOL   C29811568   8.227   3.828   1.919  0.4868  0.4933  0.2782
   36MOL   H29911569   8.302   3.629   1.940 -0.5246 -1.5416 -0.9318
   36MOL   H30011570   0.049   3.515   1.800  0.5659 -0.3734  0.2026
   36MOL   H30111571   0.192   3.701   1.458  0.3463 -1.7456 -0.2722
   36MOL   H30211572   0.003   3.884   1.474 -1.4319  0.0678  0.0688
   36MOL   H30311573   8.269   3.872   1.641  2.5532  2.0318 -0.3100
   36MOL   H30411574   8.317   3.890   1.916 -0.8630  2.4376 -3.7003
   36MOL   H30511575   8.164   3.894   1.859  0.4270  1.6363  1.5856
   36MOL   C30611576   8.175   3.817   2.069 -0.2159 -0.1658  0.4245
   36MOL   C30711577   8.278   3.746   2.163  0.2460 -0.0526  0.0820
   36MOL   C30811578   8.232   3.655   2.266  0.3252 -0.0238 -0.1507
   36MOL   C30911579   8.322   3.592   2.354 -0.2375  0.5722 -0.0959
   36MOL  Cl31011580   8.266   3.487   2.480 -0.0533 -0.0595 -0.1900
   36MOL   C31111581   0.024   3.623   2.347  0.4317 -0.6414  0.8218
   36MOL   C31211582   0.073   3.710   2.253  0.2668 -0.0958 -0.2226
   36MOL   C31311583   8.420   3.775   2.159 -0.0984 -0.2464 -0.3152
   36MOL   C31411584   8.120   3.940   2.137 -0.3103 -0.0562  0.7055
   36MOL   H31511585   8.086   3.752   2.071 -1.9801  2.2059  1.8054
   36MOL   H31611586   8.131   3.617   2.254  0.9482 -1.4460 -0.9905
   36MOL   H31711587   0.089   3.573   2.418 -1.9339 -1.9362  2.1561
   36MOL   H31811588   0.177   3.736   2.254 -0.1135  1.4672  0.3328
   36MOL   H31911589   0.027   3.847   2.091 -0.1813  0.0575 -0.0485
   36MOL   H32011590   8.067   4.008   2.071  0.6410 -0.8362 -0.8987
   36MOL   H32111591   8.050   3.902   2.211  0.5753  0.1131  1.6443
   36MOL   H32211592   8.201   3.986   2.194  1.4350 -2.0046 -0.1410
   37MOL     C111593   0.896   7.872   3.130 -1.0329 -0.6021  0.1217
   37MOL     C211594   0.863   7.932   2.997 -0.2488 -0.2969  0.5728
   37MOL     C311595   0.863   7.846   2.886  0.6807 -0.0380  0.4399
   37MOL     C411596   0.850   7.895   2.757  0.1187 -0.8799 -0.2149
   37MOL    Cl511597   0.840   7.787   2.628 -0.0172  0.1859 -0.3930
   37MOL     C611598   0.841   8.035   2.729 -0.0349 -0.5144 -0.2113
   37MOL     C711599   0.841   8.125   2.839  0.8709  0.1575 -0.2417
   37MOL     C811600   0.848   8.071   2.977  0.4777  0.3076  0.2735
   37MOL     C911601   1.041   7.839   3.160 -1.0057 -0.1310  0.3023
   37MOL    H1011602   0.833   7.784   3.139 -0.7507 -0.5044  3.9543
   37MOL    H1111603   0.884   7.740   2.895 -1.5379 -0.3692  1.9695
   37MOL    H1211604   0.833   8.072   2.627 -0.4368 -1.4038 -0.5028
   37MOL    H1311605   0.833   8.232   2.827  1.2436 -0.0147 -2.1399
   37MOL    H1411606   0.847   8.141   3.059  1.3021  0.5832  0.0502
   37MOL    H1511607   1.051   7.792   3.258 -1.6991  1.6911  1.2866
   37MOL    H1611608   1.066   7.761   3.089  2.3531  1.2846 -0.1806
   37MOL    H1711609   0.847   7.933   3.206  0.3145  1.0142 -0.2845
   37MOL    C1811610   1.140   7.956   3.153  0.5311 -0.6167 -0.2893
   37MOL    C1911611   1.107   8.075   3.246  0.4845  0.6349  0.5737
   37MOL    C2011612   1.151   8.205   3.219 -0.8659  1.1034  0.1010
   37MOL    C2111613   1.147   8.309   3.313  0.8318  0.2609  0.1107
   37MOL   Cl2211614   1.206   0.030   3.277 -0.3504 -0.1282  0.2297
   37MOL    C2311615   1.098   8.288   3.437 -0.0109  0.6203  0.0215
   37MOL    C2411616   1.054   8.155   3.466  0.1845  0.0759 -0.1844
   37MOL    C2511617   1.059   8.049   3.373 -0.4880 -0.0225 -0.0237
   37MOL    C2611618   1.293   7.911   3.162  0.2326  0.3175 -0.4086
   37MOL    H2711619   1.131   7.991   3.050 -1.6597  1.1467  0.4509
   37MOL    H2811620   1.197   8.218   3.122  0.6910  2.2922  0.9747
   37MOL    H2911621   1.080   8.368   3.507 -3.0237  1.0600 -1.1750
   37MOL    H3011622   1.025   8.121   3.565  2.3551  0.6313  0.6785
   37MOL    H3111623   1.024   7.953   3.409  0.1362 -0.3767 -0.3495
   37MOL    H3211624   1.359   7.997   3.154  2.2075 -0.9614  1.5013
   37MOL    H3311625   1.312   7.869   3.261  0.3468  0.4863 -0.3600
   37MOL    C3411626   1.349   7.805   3.058  1.3326 -0.1608 -0.1474
   37MOL    C3511627   1.308   7.831   2.916  0.2587  0.4167 -0.6637
   37MOL    C3611628   1.233   7.738   2.842  0.1296 -0.0042  0.6473
   37MOL    C3711629   1.193   7.756   2.713 -0.7567 -0.5717  0.1308
   37MOL   Cl3811630   1.116   7.625   2.619 -0.0215  0.0473 -0.1387
   37MOL    C3911631   1.217   7.880   2.655  0.9816 -0.0858 -0.5783
   37MOL    C4011632   1.299   7.974   2.728 -0.6010 -0.4707  0.5572
   37MOL    C4111633   1.337   7.953   2.861 -0.2090  0.3925  0.0284
   37MOL    C4211634   1.499   7.770   3.067 -0.3044 -0.0607 -0.1820
   37MOL    H4311635   1.299   7.712   3.085 -2.7470  1.7580 -0.6344
   37MOL    H4411636   1.199   7.652   2.897 -6.0313  1.2098 -0.8940
   37MOL    H4511637   1.187   7.893   2.552 -1.8403 -2.2164 -0.0979
   37MOL    H4611638   1.322   8.073   2.691 -1.3413 -0.3745  0.3435
   37MOL    H4711639   1.407   8.012   2.920 -0.4469 -0.5972  1.3249
   37MOL    H4811640   1.513   7.682   3.005 -0.5314  0.1209 -0.4990
   37MOL    H4911641   1.556   7.844   3.011 -0.3312 -0.6861 -1.0406
   37MOL    C5011642   1.576   7.760   3.201 -0.1772 -0.3533  0.6586
   37MOL    C5111643   1.511   7.653   3.292 -0.3502 -0.0658 -0.2133
   37MOL    C5211644   1.513   7.665   3.431  0.1266 -0.1908  0.0087
   37MOL    C5311645   1.438   7.573   3.516  0.1116  0.3294 -0.1052
   37MOL   Cl5411646   1.437   7.593   3.689 -0.0222  0.0680 -0.0510
   37MOL    C5511647   1.374   7.464   3.460  0.5961  0.3735  0.5800
   37MOL    C5611648   1.382   7.441   3.319  0.2013 -0.0044 -0.0911
   37MOL    C5711649   1.443   7.539   3.234 -0.0050  0.5071  0.1102
   37MOL    C5811650   1.727   7.715   3.178 -0.1875  0.9157 -0.3719
   37MOL    H5911651   1.571   7.852   3.258  1.2509  1.3935 -1.9264
   37MOL    H6011652   1.559   7.749   3.480  0.3996 -1.4720  2.0060
   37MOL    H6111653   1.306   7.405   3.519  0.3694 -0.4002 -0.4558
   37MOL    H6211654   1.345   7.353   3.268  1.1444  1.3265 -3.1624
   37MOL    H6311655   1.447   7.526   3.127 -1.0447 -0.0969  0.1290
   37MOL    H6411656   1.784   7.676   3.263  0.3183  1.1531 -0.5994
   37MOL    H6511657   1.724   7.630   3.110  1.5170  1.2919 -0.9390
   37MOL    C6611658   1.828   7.821   3.113 -0.5009  0.4285  0.4637
   37MOL    C6711659   1.891   7.929   3.206  0.3300  0.0190 -0.2563
   37MOL    C6811660   1.964   7.891   3.320  0.1716 -0.3261 -0.3900
   37MOL    C6911661   2.010   7.985   3.417 -0.6768 -0.3589  0.1744
   37MOL   Cl7011662   2.100   7.939   3.568 -0.5235  0.3287 -0.2810
   37MOL    C7111663   1.991   8.120   3.387  0.8421  0.3102 -0.8995
   37MOL    C7211664   1.927   8.163   3.264  0.0949 -0.2327 -0.1794
   37MOL    C7311665   1.871   8.066   3.176 -0.4703  0.1138 -0.5448
   37MOL    C7411666   1.939   7.735   3.042  0.7489 -0.2244 -0.0606
   37MOL    H7511667   1.776   7.867   3.029  0.7280 -2.3127 -1.8860
   37MOL    H7611668   1.976   7.785   3.337 -0.1621 -0.1971  0.6699
   37MOL    H7711669   2.031   8.193   3.456  0.0630 -1.6494  1.6724
   37MOL    H7811670   1.915   8.270   3.256  1.8348 -0.0669 -0.7095
   37MOL    H7911671   1.811   8.092   3.091  0.7610 -0.5520 -1.6267
   37MOL    H8011672   2.040   7.771   3.057  1.2863 -1.3479 -0.8833
   37MOL    H8111673   1.940   7.632   3.077  1.5913  0.0065  0.6054
   37MOL    C8211674   1.929   7.739   2.885 -0.0030 -0.6203  0.1561
   37MOL    C8311675   1.968   7.877   2.823  0.1916  1.2140 -0.2431
   37MOL    C8411676   1.865   7.944   2.750  0.1905  0.7047  0.2126
   37MOL    C8511677   1.892   8.064   2.688 -0.2121 -0.2702 -0.6491
   37MOL   Cl8611678   1.770   8.144   2.606  0.1162 -0.2702  0.1653
   37MOL    C8711679   2.020   8.121   2.701  0.1191 -0.4976 -0.1281
   37MOL    C8811680   2.120   8.052   2.768 -0.1965 -0.5754  0.8191
   37MOL    C8911681   2.096   7.934   2.839 -0.1029  0.0592 -0.2094
   37MOL    C9011682   2.016   7.625   2.820 -0.1954  0.5189  0.0540
   37MOL    H9111683   1.826   7.714   2.859  0.1875 -3.8069  2.2925
   37MOL    H9211684   1.765   7.906   2.748 -0.0587  1.3946 -0.6791
   37MOL    H9311685   2.039   8.220   2.660 -3.4684 -0.7969 -2.6997
   37MOL    H9411686   2.218   8.094   2.784  0.5236 -2.2617  0.9134
   37MOL    H9511687   2.163   7.902   2.918  1.4217 -1.1947 -1.9673
   37MOL    H9611688   2.016   7.630   2.711 -0.0529  1.3459  0.0931
   37MOL    H9711689   2.120   7.641   2.847  0.0773  0.3186 -0.8517
   37MOL    C9811690   1.980   7.480   2.848  0.0405  0.1761 -0.4398
   37MOL    C9911691   1.836   7.450   2.868  0.8290  0.0257 -0.0649
   37MOL   C10011692   1.743   7.477   2.767 -0.0555 -0.1334  0.0511
   37MOL   C10111693   1.603   7.450   2.789 -0.0479  0.4135  0.0314
   37MOL  Cl10211694   1.495   7.466   2.656 -0.3908  0.0203  0.0210
   37MOL   C10311695   1.562   7.389   2.915  0.2773 -0.2273 -0.0572
   37MOL   C10411696   1.652   7.381   3.020  0.5841 -0.0676  0.5325
   37MOL   C10511697   1.791   7.408   2.999  0.6290 -0.5835 -0.3217
   37MOL   C10611698   2.040   7.377   2.744  0.1677  0.0072  0.0987
   37MOL   H10711699   2.024   7.449   2.943 -0.0144 -3.5618 -1.5177
   37MOL   H10811700   1.777   7.502   2.667 -0.5350 -0.8299 -0.2888
   37MOL   H10911701   1.462   7.355   2.936  0.3157  0.3662  1.1055
   37MOL   H11011702   1.609   7.350   3.115 -0.3781 -1.3100 -0.2780
   37MOL   H11111703   1.857   7.406   3.085 -0.8669 -0.1381  0.8731
   37MOL   H11211704   2.007   7.408   2.646  0.5331  1.6303  0.4807
   37MOL   H11311705   2.148   7.393   2.746  0.3979 -1.4298 -0.1293
   37MOL   C11411706   2.000   7.237   2.773 -0.0788  0.7148 -0.4686
   37MOL   C11511707   1.921   7.168   2.665 -0.3641  0.4475  1.1764
   37MOL   C11611708   1.971   7.166   2.530  0.1044 -0.3586 -0.6420
   37MOL   C11711709   1.897   7.101   2.430  0.5923 -0.2220 -0.1512
   37MOL  Cl11811710   1.958   7.077   2.269 -0.0603  0.0840 -0.3185
   37MOL   C11911711   1.774   7.041   2.463  0.5645  0.1724 -0.3356
   37MOL   C12011712   1.718   7.049   2.591 -0.1108  0.5489 -0.0157
   37MOL   C12111713   1.797   7.110   2.692  0.1364 -0.0945  0.6006
   37MOL   C12211714   2.123   7.157   2.825 -0.6214  0.6956  0.0909
   37MOL   H12311715   1.933   7.240   2.859  1.1439  4.0791  0.4653
   37MOL   H12411716   2.065   7.215   2.513 -0.2632  0.3846 -0.5275
   37MOL   H12511717   1.720   6.982   2.391  1.1509  0.1024 -0.7212
   37MOL   H12611718   1.624   7.009   2.624  0.2549 -0.4555 -0.1504
   37MOL   H12711719   1.744   7.124   2.786 -1.5174 -1.9716  0.0024
   37MOL   H12811720   2.201   7.152   2.749  0.3539  2.0203  0.9919
   37MOL   H12911721   2.164   7.217   2.906  0.4077  0.4420 -0.2394
   37MOL   C13011722   2.095   7.011   2.881 -0.5082  0.2363 -0.3628
   37MOL   C13111723   2.212   6.916   2.873  0.0952  0.2943 -0.7812
   37MOL   C13211724   2.202   6.778   2.842  0.4677  0.9268  0.0825
   37MOL   C13311725   2.316   6.697   2.830 -0.0479 -0.1765  0.7589
   37MOL  Cl13411726   2.297   6.536   2.769  0.0548  0.0930 -0.6838
   37MOL   C13511727   2.444   6.754   2.856  0.2687  0.2670 -0.3201
   37MOL   C13611728   2.455   6.887   2.899  0.3999 -0.2048  0.6634
   37MOL   C13711729   2.339   6.963   2.905  0.0164  0.9220  0.0845
   37MOL   C13811730   2.019   7.002   3.024 -0.4014  0.4642  0.0178
   37MOL   H13911731   2.029   6.969   2.805 -0.4689  0.2120 -0.3836
   37MOL   H14011732   2.113   6.735   2.798  1.0487 -1.3346  1.0253
   37MOL   H14111733   2.538   6.700   2.853 -0.8948 -1.8342 -0.3276
   37MOL   H14211734   2.553   6.925   2.927  0.2371  0.5179  0.2729
   37MOL   H14311735   2.346   7.065   2.941  0.5250  0.7004  0.6311
   37MOL   H14411736   1.927   7.057   3.004  0.6696  1.5421 -2.0823
   37MOL   H14511737   1.991   6.897   3.032  0.0124  0.3699  0.2192
   37MOL   C14611738   2.094   7.055   3.143 -0.7225  0.2905  0.7691
   37MOL   C14711739   2.001   7.120   3.239 -0.2069  0.4995 -0.3026
   37MOL   C14811740   1.888   7.049   3.303 -1.0083 -0.1592 -0.5092
   37MOL   C14911741   1.801   7.111   3.394 -0.1512  0.0474 -0.0879
   37MOL  Cl15011742   1.675   7.026   3.475 -0.1515 -0.2026 -0.3541
   37MOL   C15111743   1.823   7.247   3.419  0.0227 -0.2920 -0.0311
   37MOL   C15211744   1.930   7.319   3.360 -0.5823  0.9578 -0.2025
   37MOL   C15311745   2.014   7.259   3.264 -0.1009 -0.5207  0.2380
   37MOL   C15411746   2.166   6.940   3.214 -0.8238  0.3458  0.0712
   37MOL   H15511747   2.174   7.123   3.113 -1.2786  0.5159 -0.2402
   37MOL   H15611748   1.869   6.944   3.284  0.7916 -1.0246  2.1358
   37MOL   H15711749   1.754   7.293   3.489  1.4581  1.0389  0.5537
   37MOL   H15811750   1.946   7.424   3.379 -0.9344  0.7020  1.5622
   37MOL   H15911751   2.084   7.325   3.215 -1.0877  1.2460  1.1175
   37MOL   H16011752   2.106   6.860   3.257  0.9353  0.6069  3.2124
   37MOL   H16111753   2.226   6.882   3.143  0.7758  1.2085  0.6737
   37MOL   C16211754   2.271   6.977   3.336  0.6452  0.1394  0.3131
   37MOL   C16311755   2.204   7.009   3.470  0.0491 -0.4353  0.2418
   37MOL   C16411756   2.122   6.917   3.533 -0.4037  0.5550  0.2583
   37MOL   C16511757   2.045   6.948   3.646  0.4969  1.1194  0.0197
   37MOL  Cl16611758   1.945   6.833   3.728 -0.3276  0.1532  0.0609
   37MOL   C16711759   2.044   7.074   3.697  0.2218 -0.5987 -0.1191
   37MOL   C16811760   2.115   7.181   3.628 -0.4203  0.5798 -0.0012
   37MOL   C16911761   2.195   7.143   3.521 -0.2278  0.1546 -0.5356
   37MOL   C17011762   2.393   6.875   3.346 -0.6569 -0.2854  0.4426
   37MOL   H17111763   2.318   7.069   3.303  2.6519  0.1882  3.1138
   37MOL   H17211764   2.114   6.823   3.481 -2.8884  1.1206 -0.4510
   37MOL   H17311765   1.989   7.093   3.789 -1.1675  0.3033 -1.1082
   37MOL   H17411766   2.122   7.279   3.674 -0.2844 -0.5089  2.3510
   37MOL   H17511767   2.250   7.220   3.470 -1.6923  1.2965 -0.4493
   37MOL   H17611768   2.342   6.779   3.351 -0.5533 -0.3176  0.8932
   37MOL   H17711769   2.432   6.880   3.244  2.8062 -1.0721  1.6471
   37MOL   C17811770   2.497   6.895   3.456  0.1112  0.6629 -0.0621
   37MOL   C17911771   2.609   6.785   3.441  0.6100 -0.3970 -0.2453
   37MOL   C18011772   2.670   6.759   3.316 -0.7674  0.5472 -0.0564
   37MOL   C18111773   2.780   6.668   3.301 -0.4622  0.2987 -0.2780
   37MOL  Cl18211774   2.864   6.660   3.153  0.1796  0.1683 -0.0934
   37MOL   C18311775   2.836   6.606   3.416  0.2907 -0.3019 -0.1901
   37MOL   C18411776   2.785   6.637   3.541 -0.3810 -0.3399 -0.6219
   37MOL   C18511777   2.676   6.730   3.555  0.2609  0.1007 -0.1295
   37MOL   C18611778   2.568   7.031   3.445  0.6251  0.0371 -0.4307
   37MOL   H18711779   2.445   6.876   3.550  0.3384 -1.4546 -0.3356
   37MOL   H18811780   2.629   6.812   3.232 -2.8828 -1.4160 -0.3218
   37MOL   H18911781   2.921   6.540   3.401  0.0714 -0.5337 -0.4311
   37MOL   H19011782   2.830   6.591   3.628  0.4605  2.8387  0.7062
   37MOL   H19111783   2.644   6.757   3.655 -0.2504 -0.4805 -0.1362
   37MOL   H19211784   2.670   7.021   3.407  0.2691  1.1979 -1.7489
   37MOL   H19311785   2.526   7.087   3.361  0.9684  0.8667 -0.0622
   37MOL   C19411786   2.559   7.133   3.563  0.0427  0.0834  0.0638
   37MOL   C19511787   2.584   7.071   3.701 -0.0015  0.7412  0.5039
   37MOL   C19611788   2.717   7.037   3.741 -0.3560 -0.7798  0.0774
   37MOL   C19711789   2.734   6.979   3.869 -0.4648 -0.3921 -0.8391
   37MOL  Cl19811790   2.885   6.941   3.915 -0.2744 -0.2192  0.3301
   37MOL   C19911791   2.624   6.963   3.955 -0.0696 -0.1485 -0.1646
   37MOL   C20011792   2.491   6.984   3.914 -0.6524 -0.3908 -0.1917
   37MOL   C20111793   2.471   7.032   3.782  0.5253  0.3078 -0.0399
   37MOL   C20211794   2.650   7.255   3.545 -0.1172  0.3160 -0.5628
   37MOL   H20311795   2.462   7.183   3.567  1.2868  2.4588  1.8628
   37MOL   H20411796   2.801   7.054   3.675  0.3457  0.1268  1.1785
   37MOL   H20511797   2.641   6.915   4.051 -2.9101  0.9027  0.9408
   37MOL   H20611798   2.414   6.944   3.978  0.4944  1.0402  2.1430
   37MOL   H20711799   2.373   7.054   3.743  1.8016  3.3949 -1.6834
   37MOL   H20811800   2.756   7.235   3.560 -0.1950  0.0402 -0.3807
   37MOL   H20911801   2.666   7.284   3.441 -1.6789  0.1368 -0.8587
   37MOL   C21011802   2.597   7.380   3.624 -0.6132 -0.3132 -0.0085
   37MOL   C21111803   2.702   7.458   3.700 -0.0463  0.3269  0.3989
   37MOL   C21211804   2.749   7.585   3.652  0.5698  1.0079  0.3326
   37MOL   C21311805   2.842   7.656   3.727  0.8639 -1.5508 -0.1597
   37MOL  Cl21411806   2.906   7.803   3.654 -0.0294  0.0883 -0.3606
   37MOL   C21511807   2.891   7.602   3.846 -0.7571 -0.2744  0.2747
   37MOL   C21611808   2.847   7.476   3.891  0.0657  1.2061  0.1972
   37MOL   C21711809   2.750   7.404   3.821 -0.3348 -0.7279  0.1017
   37MOL   C21811810   2.501   7.462   3.543  0.1862 -0.2584  0.2425
   37MOL   H21911811   2.551   7.338   3.714  2.0033 -1.5578  0.7921
   37MOL   H22011812   2.710   7.624   3.560 -0.0207 -1.3849 -0.4508
   37MOL   H22111813   2.967   7.655   3.901 -0.6775  1.1059 -1.1551
   37MOL   H22211814   2.906   7.435   3.971 -0.3040  1.2886  0.5142
   37MOL   H22311815   2.726   7.301   3.846  1.7177 -1.1360  0.4610
   37MOL   H22411816   2.568   7.499   3.466  1.2381 -0.4661  1.0422
   37MOL   H22511817   2.427   7.398   3.495 -0.2009 -0.9324  1.7076
   37MOL   C22611818   2.428   7.582   3.609  0.0470  0.4531 -0.3485
   37MOL   C22711819   2.386   7.672   3.501 -0.1852  0.3533 -0.8734
   37MOL   C22811820   2.448   7.793   3.478 -0.3426  0.3429  0.8227
   37MOL   C22911821   2.418   7.871   3.367  0.0418  0.0423 -0.3229
   37MOL  Cl23011822   2.504   8.011   3.325  0.0507 -0.2609 -0.5055
   37MOL   C23111823   2.307   7.835   3.291  0.5754  0.2937 -0.3420
   37MOL   C23211824   2.249   7.708   3.308 -0.1475 -0.1142  0.3898
   37MOL   C23311825   2.281   7.629   3.421  0.7654 -0.7563  0.4408
   37MOL   C23411826   2.318   7.523   3.705 -0.8579 -0.6782 -0.5727
   37MOL   H23511827   2.487   7.642   3.678 -1.1187 -0.1816  1.2253
   37MOL   H23611828   2.528   7.827   3.542 -0.6763  1.7610  0.5111
   37MOL   H23711829   2.267   7.900   3.215 -0.8715  0.7293  0.7669
   37MOL   H23811830   2.181   7.664   3.238  0.7399  0.2378 -0.7109
   37MOL   H23911831   2.239   7.530   3.436  0.3176 -0.4973  0.9119
   37MOL   H24011832   2.264   7.444   3.653 -0.0041 -1.9025  0.3729
   37MOL   H24111833   2.378   7.476   3.783 -0.9215 -1.2456 -0.8644
   37MOL   C24211834   2.210   7.613   3.763 -0.0177 -0.3306  0.5524
   37MOL   C24311835   2.075   7.535   3.764  0.6841  0.3016 -0.1690
   37MOL   C24411836   2.052   7.433   3.858  0.1717  0.1365  0.3687
   37MOL   C24511837   1.931   7.365   3.866  0.8896 -0.2167  0.1240
   37MOL  Cl24611838   1.901   7.244   3.985  0.2062 -0.3393  0.4090
   37MOL   C24711839   1.823   7.397   3.780  0.0500 -0.3810 -0.4220
   37MOL   C24811840   1.842   7.502   3.686 -1.0263 -0.2515 -0.5643
   37MOL   C24911841   1.972   7.565   3.675  0.0598 -0.1568 -0.5619
   37MOL   C25011842   2.237   7.690   3.899  0.0659 -0.0828  0.0607
   37MOL   H25111843   2.199   7.697   3.694  2.2627 -0.6361 -0.2054
   37MOL   H25211844   2.129   7.405   3.928 -0.7491 -0.7369  1.0491
   37MOL   H25311845   1.728   7.347   3.785 -0.6093  0.7418 -1.3349
   37MOL   H25411846   1.766   7.513   3.611 -3.8472  0.2946  2.2910
   37MOL   H25511847   1.988   7.634   3.594  2.0163  0.9520  0.7334
   37MOL   H25611848   2.219   7.617   3.978  1.5794 -0.0108  0.4902
   37MOL   H25711849   2.342   7.718   3.911  0.2019 -1.3926  2.0690
   37MOL   C25811850   2.156   7.819   3.923 -0.6657  0.3485  0.0831
   37MOL   C25911851   2.007   7.792   3.939  0.0265 -0.3094  0.1427
   37MOL   C26011852   1.913   7.868   3.871  0.0838 -0.4328 -0.5668
   37MOL   C26111853   1.778   7.833   3.860  0.0572  0.0309 -0.4111
   37MOL  Cl26211854   1.681   7.907   3.732 -0.2681 -0.4306  0.0124
   37MOL   C26311855   1.732   7.720   3.932  0.5097  0.0343 -0.2968
   37MOL   C26411856   1.822   7.654   4.013  0.3523 -0.6658  0.1683
   37MOL   C26511857   1.959   7.685   4.014  0.4299  0.5230  0.7340
   37MOL   C26611858   2.214   7.894   4.048  0.8973  0.2908  0.6490
   37MOL   H26711859   2.171   7.878   3.832  1.7114 -0.6217 -0.2151
   37MOL   H26811860   1.943   7.950   3.808 -0.7582  0.0348 -0.3785
   37MOL   H26911861   1.629   7.687   3.924  0.0927  1.2603 -0.1932
   37MOL   H27011862   1.785   7.574   4.075 -1.2942  1.0183  1.4231
   37MOL   H27111863   2.026   7.621   4.071  0.4427  1.3144  1.6276
   37MOL   H27211864   2.181   7.842   4.137 -0.7013 -0.2363 -0.2346
   37MOL   H27311865   2.322   7.885   4.058  0.8774  0.5283  1.0687
   37MOL   C27411866   2.176   8.040   4.068 -0.0116 -0.9203  0.1688
   37MOL   C27511867   2.171   8.122   3.939 -0.5259  0.8827  0.4808
   37MOL   C27611868   2.293   8.130   3.869  0.2486  0.9875  0.2259
   37MOL   C27711869   2.291   8.195   3.745 -0.5508 -0.0350  0.5474
   37MOL  Cl27811870   2.429   8.188   3.643 -0.2943 -0.1163  0.0993
   37MOL   C27911871   2.177   8.266   3.702  0.6485  0.8011  0.2339
   37MOL   C28011872   2.058   8.259   3.773 -0.2270 -0.0296  0.6138
   37MOL   C28111873   2.053   8.179   3.888  0.0082 -0.6615 -0.1519
   37MOL   C28211874   2.044   8.060   4.154  0.3828  0.9473  0.6522
   37MOL   H28311875   2.254   8.085   4.129  0.3247  0.9887 -1.6110
   37MOL   H28411876   2.392   8.094   3.892 -1.1698 -3.3732 -0.0778
   37MOL   H28511877   2.177   8.325   3.612  1.8317 -2.7563 -2.2046
   37MOL   H28611878   1.971   8.304   3.728 -0.2688 -0.5900  0.1291
   37MOL   H28711879   1.957   8.168   3.937 -0.5419  1.7956 -0.6167
   37MOL   H28811880   2.005   8.161   4.149 -0.3138  0.5714 -2.5581
   37MOL   H28911881   1.970   8.000   4.101  0.2391 -1.2160  3.2196
   37MOL   C29011882   2.054   8.018   4.304 -0.8472 -0.2482  1.0397
   37MOL   C29111883   2.156   8.098   4.389  0.1507 -0.0043  1.1380
   37MOL   C29211884   2.270   8.039   4.446  0.2803  0.1637 -0.3457
   37MOL   C29311885   2.352   8.117   4.535 -0.7296 -0.5204 -0.4550
   37MOL  Cl29411886   2.473   8.039   4.628 -0.6650  0.5739  0.2207
   37MOL   C29511887   2.314   8.251   4.561  0.6551  0.4864  0.0085
   37MOL   C29611888   2.205   8.306   4.495  0.7307 -0.0279  0.2334
   37MOL   C29711889   2.124   8.229   4.409  0.1322  0.3522 -0.4382
   37MOL   C29811890   1.920   8.009   4.381  0.0491  0.6613 -1.1466
   37MOL   H29911891   2.105   7.922   4.290 -1.1031 -0.2473  0.0522
   37MOL   H30011892   2.294   7.934   4.442  2.4979  0.6373 -0.1561
   37MOL   H30111893   2.362   8.310   4.638  0.0925  1.2126 -0.1891
   37MOL   H30211894   2.173   8.407   4.517  2.0794  0.8921 -1.7921
   37MOL   H30311895   2.043   8.273   4.351 -0.3342 -0.6903 -0.5832
   37MOL   H30411896   1.936   7.970   4.482  0.1842 -0.0651 -1.4470
   37MOL   H30511897   1.874   8.106   4.403 -1.1996  0.0621 -1.0801
   37MOL   C30611898   1.813   7.932   4.313 -0.4190  0.0342  0.3619
   37MOL   C30711899   1.720   7.861   4.413  0.3136 -0.6082  0.2128
   37MOL   C30811900   1.683   7.920   4.537  0.1323  0.3930  0.0576
   37MOL   C30911901   1.625   7.830   4.631  0.9397  0.9752  0.4810
   37MOL  Cl31011902   1.583   7.894   4.781 -0.2546 -0.1125 -0.2808
   37MOL   C31111903   1.580   7.697   4.601 -0.1252 -0.0734  0.3684
   37MOL   C31211904   1.599   7.645   4.474 -0.2217  0.5403  0.0349
   37MOL   C31311905   1.667   7.732   4.378  0.0088 -0.2975  0.3810
   37MOL   C31411906   1.715   8.023   4.225 -0.2389 -0.6589  0.4181
   37MOL   H31511907   1.860   7.852   4.257  2.5578  0.2857  2.4214
   37MOL   H31611908   1.706   8.024   4.559  0.0607  0.5043 -0.3843
   37MOL   H31711909   1.535   7.626   4.669 -1.6604 -2.4267 -3.0166
   37MOL   H31811910   1.556   7.551   4.442  2.0363 -0.6680  0.4524
   37MOL   H31911911   1.683   7.690   4.280 -2.0253 -0.6295  0.1749
   37MOL   H32011912   1.675   8.097   4.294  3.0432  1.4973  0.1311
   37MOL   H32111913   1.777   8.081   4.156 -0.0233 -2.8704 -1.3336
   37MOL   H32211914   1.643   7.968   4.164 -1.8960  1.0017  0.8513
   38MOL     C111915   6.072   5.658   3.366 -0.3964  0.5246  0.9567
   38MOL     C211916   6.065   5.525   3.444 -0.6750 -0.0033  0.0806
   38MOL     C311917   6.181   5.448   3.477 -0.1682  0.6137  0.4391
   38MOL     C411918   6.172   5.336   3.563 -0.0708 -1.0165 -0.0680
   38MOL    Cl511919   6.315   5.245   3.597  0.1037 -0.0383  0.0302
   38MOL     C611920   6.046   5.305   3.622 -0.2406  0.1114  0.6767
   38MOL     C711921   5.934   5.386   3.601 -0.3242  0.8279 -0.2292
   38MOL     C811922   5.943   5.491   3.512  0.3286 -0.0932 -0.2187
   38MOL     C911923   6.173   5.762   3.412 -0.0981 -0.0937  0.4706
   38MOL    H1011924   5.972   5.700   3.355 -0.3757  0.1817 -0.7231
   38MOL    H1111925   6.277   5.481   3.442  0.6821 -0.7545  1.4572
   38MOL    H1211926   6.042   5.224   3.694  2.7545 -1.3847 -0.7529
   38MOL    H1311927   5.843   5.358   3.653 -0.2345  1.5250  0.2982
   38MOL    H1411928   5.856   5.552   3.496  0.1853 -0.0943  0.5833
   38MOL    H1511929   6.158   5.802   3.512 -5.1163 -0.7700  0.1166
   38MOL    H1611930   6.277   5.730   3.404  0.4285  1.3932  1.2228
   38MOL    H1711931   6.100   5.640   3.262 -1.1271  0.1325  0.8239
   38MOL    C1811932   6.169   5.888   3.328 -0.1496 -0.0507  0.2160
   38MOL    C1911933   6.027   5.949   3.303 -0.1808 -0.2510  0.5331
   38MOL    C2011934   5.925   5.963   3.401 -0.4160 -0.9811 -0.3323
   38MOL    C2111935   5.802   6.022   3.378  0.4028  0.1621  0.5129
   38MOL   Cl2211936   5.687   6.038   3.506 -0.2096  0.0661 -0.0491
   38MOL    C2311937   5.777   6.072   3.252 -0.2200  0.3570 -0.1999
   38MOL    C2411938   5.868   6.054   3.146 -0.8209 -0.9049  0.4714
   38MOL    C2511939   5.993   5.995   3.175 -0.0504 -0.4972  0.2718
   38MOL    C2611940   6.268   6.000   3.363  0.0405 -0.0380  0.3741
   38MOL    H2711941   6.192   5.856   3.227 -1.7852 -0.0429 -0.1796
   38MOL    H2811942   5.950   5.936   3.503 -1.8099  0.8676  0.5278
   38MOL    H2911943   5.682   6.121   3.237 -0.9639 -1.0577 -0.1547
   38MOL    H3011944   5.841   6.093   3.049 -0.7167 -0.8109  0.4797
   38MOL    H3111945   6.065   5.987   3.095  3.1800  0.1220  3.0000
   38MOL    H3211946   6.363   5.957   3.395  0.1096 -0.6120 -0.6093
   38MOL    H3311947   6.279   6.052   3.269 -1.8459 -1.1892 -0.5169
   38MOL    C3411948   6.230   6.101   3.470 -0.1327 -0.3209 -0.4461
   38MOL    C3511949   6.248   6.048   3.608 -0.8183  0.2082  0.8614
   38MOL    C3611950   6.379   6.026   3.652 -0.1250  0.2469  0.3737
   38MOL    C3711951   6.404   5.985   3.785  0.6484  0.6362 -0.0981
   38MOL   Cl3811952   6.574   5.966   3.838  0.2658 -0.2262  0.3805
   38MOL    C3911953   6.296   5.949   3.870  0.5035  0.5590 -0.5690
   38MOL    C4011954   6.170   5.963   3.823 -0.3201 -0.2564 -0.7857
   38MOL    C4111955   6.144   6.012   3.693  0.4809 -0.1306  0.3199
   38MOL    C4211956   6.309   6.231   3.462  0.0043 -0.7901  0.7050
   38MOL    H4311957   6.124   6.121   3.453 -0.5476 -2.4543 -0.5085
   38MOL    H4411958   6.467   6.050   3.594 -0.1690 -1.6107 -0.4911
   38MOL    H4511959   6.316   5.905   3.967 -0.9571 -2.1975 -1.4847
   38MOL    H4611960   6.084   5.929   3.879 -1.0446  0.1925 -1.6071
   38MOL    H4711961   6.041   6.028   3.663  0.0506 -1.8534  0.8292
   38MOL    H4811962   6.314   6.274   3.562  1.6198 -1.6711  1.0240
   38MOL    H4911963   6.410   6.197   3.438  0.3430  0.0515  0.9151
   38MOL    C5011964   6.271   6.328   3.349  0.6281  0.2638  0.1734
   38MOL    C5111965   6.128   6.387   3.358 -0.0408 -0.2798  0.4025
   38MOL    C5211966   6.035   6.357   3.257 -1.1028  0.7132 -0.2421
   38MOL    C5311967   5.909   6.425   3.251 -0.4273  0.0790 -0.2438
   38MOL   Cl5411968   5.803   6.397   3.121 -0.1213 -0.5625  0.1865
   38MOL    C5511969   5.894   6.528   3.346 -0.1078 -0.8351 -0.3396
   38MOL    C5611970   5.983   6.554   3.451 -0.3131  0.1309  0.0283
   38MOL    C5711971   6.095   6.469   3.465 -0.2148 -0.5951 -0.6579
   38MOL    C5811972   6.373   6.438   3.340  0.1504  0.4284 -0.0822
   38MOL    H5911973   6.269   6.276   3.254 -0.8057  4.0072 -1.9515
   38MOL    H6011974   6.056   6.297   3.169 -4.1855  0.2048 -0.6943
   38MOL    H6111975   5.807   6.591   3.332  0.0610 -0.3069  0.9636
   38MOL    H6211976   5.950   6.627   3.523 -1.7759 -0.8461  0.3662
   38MOL    H6311977   6.169   6.479   3.543  0.7472  0.7428 -1.7045
   38MOL    H6411978   6.381   6.474   3.443  3.7252 -0.5802  0.0542
   38MOL    H6511979   6.474   6.401   3.325 -0.7479 -1.8562 -0.6359
   38MOL    C6611980   6.353   6.562   3.245 -0.0958  0.1667  0.8906
   38MOL    C6711981   6.432   6.690   3.285 -0.1504 -0.1545  0.1369
   38MOL    C6811982   6.572   6.678   3.314  0.8925  0.0313 -0.1192
   38MOL    C6911983   6.636   6.799   3.333 -0.3503 -0.1607 -0.0728
   38MOL   Cl7011984   6.807   6.800   3.359 -0.1066 -0.2048  0.2375
   38MOL    C7111985   6.578   6.927   3.322 -0.5201 -0.6669  0.5059
   38MOL    C7211986   6.439   6.934   3.303 -0.0576  0.6284  0.2369
   38MOL    C7311987   6.366   6.814   3.283  0.5856 -0.1449 -0.3817
   38MOL    C7411988   6.347   6.527   3.093  0.0322 -0.0520 -0.2627
   38MOL    H7511989   6.250   6.597   3.250 -0.4403 -0.5604 -0.7191
   38MOL    H7611990   6.616   6.581   3.335 -0.4400 -0.6068 -0.2324
   38MOL    H7711991   6.633   7.019   3.333 -4.5048  1.7410  1.5349
   38MOL    H7811992   6.398   7.033   3.300 -0.3547  0.5092  0.3535
   38MOL    H7911993   6.260   6.818   3.260 -0.0875 -3.8025  1.6188
   38MOL    H8011994   6.288   6.437   3.077 -0.8849  0.7960 -1.7879
   38MOL    H8111995   6.289   6.599   3.036 -0.3116  0.1367  0.3262
   38MOL    C8211996   6.489   6.508   3.024  0.5687  0.3672 -0.7034
   38MOL    C8311997   6.554   6.375   3.069  0.3448  0.0408 -0.0800
   38MOL    C8411998   6.490   6.250   3.026  0.2054 -0.6367 -0.1871
   38MOL    C8511999   6.533   6.120   3.072  0.3791 -0.5727 -0.2962
   38MOL   Cl8612000   6.450   5.980   3.022 -0.3386  0.4805  0.1344
   38MOL    C8712001   6.646   6.114   3.161 -0.4055 -0.0841  0.3311
   38MOL    C8812002   6.714   6.230   3.201  0.0088 -0.0350 -0.1673
   38MOL    C8912003   6.667   6.356   3.157 -0.7536 -0.1804  0.2066
   38MOL    C9012004   6.477   6.521   2.875 -0.1061  0.0010  0.5753
   38MOL    H9112005   6.538   6.596   3.065 -0.4205 -0.0578  1.4824
   38MOL    H9212006   6.406   6.262   2.958 -0.4534  1.1766  0.9115
   38MOL    H9312007   6.684   6.018   3.194 -0.4634 -0.1279  0.2723
   38MOL    H9412008   6.795   6.207   3.270  1.5310 -0.6342 -2.0949
   38MOL    H9512009   6.722   6.440   3.195 -0.3904 -0.1624 -0.3458
   38MOL    H9612010   6.562   6.472   2.829 -0.0204  0.3048  0.4081
   38MOL    H9712011   6.392   6.459   2.846  0.6924 -1.7500  1.8810
   38MOL    C9812012   6.465   6.666   2.805 -0.1810 -0.2873 -0.3475
   38MOL    C9912013   6.585   6.753   2.837 -0.5014  0.5633 -0.2935
   38MOL   C10012014   6.570   6.884   2.888  1.0744 -0.2273 -0.2748
   38MOL   C10112015   6.682   6.961   2.919  0.4606  0.3434  0.0262
   38MOL  Cl10212016   6.673   7.124   2.982 -0.2576  0.0385  0.0796
   38MOL   C10312017   6.816   6.908   2.901 -0.3660 -0.1278 -0.2246
   38MOL   C10412018   6.827   6.778   2.848 -0.7027  0.3943  0.2616
   38MOL   C10512019   6.716   6.700   2.817 -0.2458  0.3197  0.3972
   38MOL   C10612020   6.432   6.657   2.655  0.4735 -0.2073  0.0621
   38MOL   H10712021   6.378   6.706   2.857  0.6968 -0.5644  1.3842
   38MOL   H10812022   6.469   6.916   2.910  1.2414  1.3088 -1.7072
   38MOL   H10912023   6.906   6.965   2.921 -0.2466  0.4371 -2.2658
   38MOL   H11012024   6.928   6.742   2.835 -1.5452 -1.9036 -0.2195
   38MOL   H11112025   6.728   6.609   2.761 -4.0361 -0.9050  1.4609
   38MOL   H11212026   6.485   6.742   2.612  0.1313 -0.8931 -1.7373
   38MOL   H11312027   6.463   6.567   2.603 -0.0971 -0.3373 -0.0590
   38MOL   C11412028   6.279   6.670   2.620 -0.1814 -0.6288 -0.7652
   38MOL   C11512029   6.199   6.540   2.661 -0.0636  0.2261  0.2729
   38MOL   C11612030   6.203   6.428   2.577  0.1818 -0.1556 -0.2653
   38MOL   C11712031   6.137   6.308   2.611  0.5108  0.0215  0.7148
   38MOL  Cl11812032   6.173   6.162   2.527 -0.6794  0.0863 -0.0235
   38MOL   C11912033   6.049   6.309   2.720 -0.7413  0.1050  0.0167
   38MOL   C12012034   6.033   6.423   2.793 -0.6774  0.1907  0.2581
   38MOL   C12112035   6.115   6.536   2.770 -0.2545  0.1084  0.8853
   38MOL   C12212036   6.210   6.795   2.662 -0.3704 -0.8331  0.2258
   38MOL   H12312037   6.277   6.672   2.511 -0.8121 -2.3220 -0.8043
   38MOL   H12412038   6.274   6.422   2.495  1.6396  0.0269  0.9486
   38MOL   H12512039   5.984   6.231   2.754 -0.7814  0.6836  1.3315
   38MOL   H12612040   5.971   6.420   2.882  0.4906 -1.2659  1.0388
   38MOL   H12712041   6.112   6.612   2.846 -0.9926  1.7759 -0.7537
   38MOL   H12812042   6.105   6.800   2.631 -0.2765  0.8023  0.1162
   38MOL   H12912043   6.185   6.808   2.767  0.8825  0.1405  0.4206
   38MOL   C13012044   6.274   6.931   2.620  0.0768 -0.5496 -0.5936
   38MOL   C13112045   6.307   6.919   2.467 -0.3724  0.6293 -0.5736
   38MOL   C13212046   6.207   6.890   2.367 -0.1290  0.0627  0.2360
   38MOL   C13312047   6.244   6.863   2.233 -0.2486  0.0238  0.3190
   38MOL  Cl13412048   6.133   6.863   2.101 -0.0598  0.0669 -0.3941
   38MOL   C13512049   6.382   6.860   2.207 -0.0326 -0.0141 -0.6265
   38MOL   C13612050   6.478   6.892   2.299 -0.1452 -0.2215 -0.0055
   38MOL   C13712051   6.442   6.926   2.429  1.0712  0.3367 -0.5522
   38MOL   C13812052   6.194   7.056   2.659 -0.4307 -0.6432  0.1214
   38MOL   H13912053   6.369   6.945   2.672 -0.6327 -0.5982  0.7160
   38MOL   H14012054   6.106   6.884   2.404 -0.1908 -0.7529 -0.0457
   38MOL   H14112055   6.413   6.823   2.110 -1.2928  0.8050 -1.3673
   38MOL   H14212056   6.583   6.892   2.272  0.2174 -0.2786  1.3901
   38MOL   H14312057   6.521   6.953   2.498  1.6262  0.0792 -1.0840
   38MOL   H14412058   6.102   7.047   2.601  0.7011 -0.6353 -1.6967
   38MOL   H14512059   6.173   7.048   2.766 -1.3402  0.3013  0.0195
   38MOL   C14612060   6.266   7.189   2.624  0.3174  0.1137  0.3579
   38MOL   C14712061   6.158   7.294   2.593  0.2384  0.3124 -0.4547
   38MOL   C14812062   6.144   7.330   2.458 -0.5063 -0.0269  0.0658
   38MOL   C14912063   6.048   7.424   2.415  0.3677  0.3632 -0.8489
   38MOL  Cl15012064   6.029   7.460   2.244  0.1077  0.2991  0.1089
   38MOL   C15112065   5.966   7.479   2.516  0.2887  0.8712  0.4120
   38MOL   C15212066   6.000   7.464   2.652 -0.3051  0.2751  0.7298
   38MOL   C15312067   6.090   7.367   2.690 -0.4776  0.1094 -0.4215
   38MOL   C15412068   6.366   7.238   2.734  1.1592 -0.1116 -0.1088
   38MOL   H15512069   6.323   7.175   2.532  0.2201 -3.0664  0.7273
   38MOL   H15612070   6.206   7.284   2.382  0.9991 -1.0148  1.8416
   38MOL   H15712071   5.892   7.551   2.486  0.3554  0.5860 -0.4653
   38MOL   H15812072   5.957   7.531   2.726 -0.9957  1.8683 -1.0752
   38MOL   H15912073   6.106   7.359   2.797 -1.8455  1.1505 -0.1194
   38MOL   H16012074   6.315   7.261   2.828  0.4406  0.4439 -0.6309
   38MOL   H16112075   6.432   7.159   2.769  1.4476  0.4951  0.7263
   38MOL   C16212076   6.469   7.341   2.684 -0.3283  0.0673 -0.0794
   38MOL   C16312077   6.404   7.481   2.669  0.0515 -0.1724  0.3656
   38MOL   C16412078   6.363   7.556   2.786  0.2915  0.2889  0.0983
   38MOL   C16512079   6.296   7.678   2.759 -0.3602 -0.4366  0.1990
   38MOL  Cl16612080   6.225   7.778   2.887 -0.0926  0.2162 -0.1934
   38MOL   C16712081   6.267   7.715   2.625 -0.1266 -0.1477  0.1256
   38MOL   C16812082   6.311   7.641   2.511  0.1436  0.9081 -0.0975
   38MOL   C16912083   6.375   7.519   2.537  0.4410  0.0201 -1.0749
   38MOL   C17012084   6.609   7.346   2.752 -0.0455 -0.2970 -0.0331
   38MOL   H17112085   6.507   7.305   2.588 -0.8464 -0.5846 -0.0406
   38MOL   H17212086   6.386   7.529   2.888  2.0897 -0.4250 -0.4835
   38MOL   H17312087   6.206   7.804   2.618  0.2363  0.2004  1.2834
   38MOL   H17412088   6.291   7.669   2.409  1.2152  2.1646  0.0275
   38MOL   H17512089   6.414   7.451   2.462 -1.9517 -1.1687 -1.2618
   38MOL   H17612090   6.589   7.362   2.858  2.6175 -2.2505  0.8243
   38MOL   H17712091   6.658   7.249   2.750 -0.2843 -0.4225  0.1817
   38MOL   C17812092   6.704   7.457   2.694  0.1215 -0.3597 -0.7036
   38MOL   C17912093   6.799   7.490   2.809  0.0995  0.6083  0.2330
   38MOL   C18012094   6.800   7.621   2.863 -0.2861  0.2010  0.4296
   38MOL   C18112095   6.872   7.647   2.978 -0.3558  0.5504 -0.7509
   38MOL  Cl18212096   6.856   7.795   3.063  0.3169 -0.1494  0.2832
   38MOL   C18312097   6.961   7.555   3.038  0.1678  0.6175  0.0560
   38MOL   C18412098   6.964   7.421   2.977  0.2523 -0.4060 -0.4570
   38MOL   C18512099   6.884   7.390   2.866  0.1615  0.0927 -0.0722
   38MOL   C18612100   6.767   7.402   2.569 -0.4825  0.0536  0.0264
   38MOL   H18712101   6.650   7.546   2.663  0.1450  0.7017  2.1252
   38MOL   H18812102   6.730   7.699   2.839 -1.0052  0.2752  2.6483
   38MOL   H18912103   7.016   7.572   3.130  0.8216 -0.9285 -0.0347
   38MOL   H19012104   7.037   7.348   3.008 -0.8479 -0.7609  1.3669
   38MOL   H19112105   6.887   7.290   2.824  0.4577 -0.0685  0.3311
   38MOL   H19212106   6.867   7.369   2.598 -0.5738 -0.5682 -0.3693
   38MOL   H19312107   6.735   7.304   2.535  1.4037 -0.9104  0.9413
   38MOL   C19412108   6.781   7.505   2.454 -0.1594  0.5320 -0.3583
   38MOL   C19512109   6.852   7.627   2.500 -0.2514 -0.9840  0.5217
   38MOL   C19612110   6.991   7.632   2.522 -0.3959  0.1447 -0.2910
   38MOL   C19712111   7.051   7.755   2.555  0.1489 -0.6465 -0.1504
   38MOL  Cl19812112   7.225   7.765   2.560  0.1340 -0.3127 -0.3121
   38MOL   C19912113   6.973   7.871   2.578 -0.0144  0.6241 -0.7396
   38MOL   C20012114   6.835   7.869   2.540  0.1564 -0.6321  0.3369
   38MOL   C20112115   6.777   7.747   2.503  0.3754 -0.9478  0.1356
   38MOL   C20212116   6.847   7.434   2.331  0.2595  0.1656 -0.3171
   38MOL   H20312117   6.684   7.539   2.417 -0.2028 -0.8973 -1.6018
   38MOL   H20412118   7.058   7.549   2.502 -0.5184  0.5984 -2.8227
   38MOL   H20512119   7.016   7.966   2.607  0.6521 -0.1653  0.9182
   38MOL   H20612120   6.774   7.958   2.543 -1.4375 -1.6749 -0.3313
   38MOL   H20712121   6.673   7.746   2.473  0.6377 -2.1849 -0.7759
   38MOL   H20812122   6.864   7.514   2.260 -1.9730  0.8775 -0.0847
   38MOL   H20912123   6.945   7.396   2.362 -0.1800 -1.9292 -1.4454
   38MOL   C21012124   6.775   7.329   2.250 -0.4480  0.3050 -0.3495
   38MOL   C21112125   6.639   7.378   2.198 -0.0115  0.7064  0.0172
   38MOL   C21212126   6.537   7.282   2.184  0.1002  0.4040 -0.0077
   38MOL   C21312127   6.403   7.325   2.160  0.4380  0.4551  0.5082
   38MOL  Cl21412128   6.278   7.213   2.148  0.1889  0.2387  0.4704
   38MOL   C21512129   6.378   7.454   2.131 -0.0550  0.0395  0.0322
   38MOL   C21612130   6.484   7.548   2.135  0.5519 -0.0347  0.3618
   38MOL   C21712131   6.616   7.509   2.167  0.0408 -0.6298 -0.0340
   38MOL   C21812132   6.858   7.259   2.134  0.0662 -0.2259  0.2660
   38MOL   H21912133   6.754   7.248   2.320  2.1007  0.9399  1.2197
   38MOL   H22012134   6.558   7.179   2.210  0.6704  1.0217  2.0601
   38MOL   H22112135   6.274   7.481   2.122  0.1591  1.1807  0.9743
   38MOL   H22212136   6.464   7.654   2.130 -2.4956 -0.4986  1.7717
   38MOL   H22312137   6.693   7.582   2.184  1.4542 -2.5699  2.1151
   38MOL   H22412138   6.786   7.189   2.092 -1.8033  1.2963  0.8421
   38MOL   H22512139   6.864   7.333   2.055 -3.0546 -0.1209  0.0804
   38MOL   C22612140   6.989   7.199   2.170  0.2383  0.2349 -0.1449
   38MOL   C22712141   6.994   7.125   2.301 -0.8959  0.1813  0.2726
   38MOL   C22812142   6.894   7.026   2.332 -0.5285 -0.8862 -0.3058
   38MOL   C22912143   6.893   6.961   2.454  0.3554  0.4562 -0.4721
   38MOL  Cl23012144   6.761   6.848   2.494 -0.3544 -0.2538 -0.4371
   38MOL   C23112145   6.989   6.989   2.550  1.1194 -0.4798  0.3641
   38MOL   C23212146   7.093   7.083   2.517 -0.3019 -0.4010  0.0755
   38MOL   C23312147   7.092   7.153   2.396  0.5731 -0.7071  0.4348
   38MOL   C23412148   7.047   7.117   2.059  1.3034 -0.4540  0.4554
   38MOL   H23512149   7.051   7.288   2.180 -0.8178  0.8920  0.7590
   38MOL   H23612150   6.814   7.000   2.264 -0.9100 -4.6217  1.4535
   38MOL   H23712151   6.985   6.935   2.644 -1.0817 -0.7226  0.1604
   38MOL   H23812152   7.170   7.106   2.590 -0.9952  1.6158  0.1970
   38MOL   H23912153   7.170   7.227   2.382 -1.0676  0.9109 -0.4928
   38MOL   H24012154   6.979   7.046   2.011  1.1055 -0.3743  0.6184
   38MOL   H24112155   7.069   7.181   1.973 -1.0596 -0.1050  0.0668
   38MOL   C24212156   7.180   7.047   2.087 -0.1160 -0.3728 -0.2827
   38MOL   C24312157   7.168   6.913   2.162  0.2615  0.4563  0.2609
   38MOL   C24412158   7.252   6.890   2.271  0.1044  0.0304 -0.4628
   38MOL   C24512159   7.237   6.776   2.352 -0.3964  0.0505  0.4336
   38MOL  Cl24612160   7.333   6.747   2.491  0.0332 -0.0258 -0.4672
   38MOL   C24712161   7.139   6.681   2.314 -0.0635  0.0239 -0.0930
   38MOL   C24812162   7.055   6.698   2.200 -0.0553 -0.8097 -0.1904
   38MOL   C24912163   7.071   6.815   2.119 -0.2584 -0.6347 -0.1648
   38MOL   C25012164   7.274   7.019   1.965  0.8081  1.7076  0.4792
   38MOL   H25112165   7.236   7.114   2.153  1.4999  1.2234 -3.1426
   38MOL   H25212166   7.330   6.955   2.307  2.2386 -2.5087 -0.3529
   38MOL   H25312167   7.122   6.593   2.375 -1.5681  0.6511  0.4223
   38MOL   H25412168   6.974   6.630   2.178 -0.7634 -0.0349 -0.0105
   38MOL   H25512169   7.011   6.819   2.029  0.1693 -1.7361 -0.5112
   38MOL   H25612170   7.344   6.950   2.013 -1.4639 -0.8480  0.2327
   38MOL   H25712171   7.222   6.957   1.892  2.0073  0.5931  0.5450
   38MOL   C25812172   7.339   7.135   1.898  0.8329  0.1073  0.0630
   38MOL   C25912173   7.398   7.234   2.000  0.1915  0.4452  0.1911
   38MOL   C26012174   7.511   7.194   2.076  0.2073  0.6933 -0.3657
   38MOL   C26112175   7.565   7.280   2.173  0.3716 -0.9828 -0.6891
   38MOL  Cl26212176   7.697   7.227   2.269  0.2114  0.5544 -0.2911
   38MOL   C26312177   7.506   7.399   2.197 -0.7127 -0.1694  0.3969
   38MOL   C26412178   7.393   7.446   2.128 -0.0966  0.7833 -0.6729
   38MOL   C26512179   7.337   7.355   2.030 -0.3820 -0.0547 -0.4547
   38MOL   C26612180   7.441   7.099   1.788 -0.3701 -0.4956 -0.1878
   38MOL   H26712181   7.261   7.191   1.846 -0.0585  0.1712  1.4463
   38MOL   H26812182   7.567   7.104   2.056 -0.8384 -0.2038  0.6611
   38MOL   H26912183   7.537   7.462   2.279 -0.9554  1.4201 -0.6948
   38MOL   H27012184   7.344   7.540   2.147 -2.0954 -0.1942 -0.7956
   38MOL   H27112185   7.240   7.377   1.989 -1.3008  1.4136  2.3052
   38MOL   H27212186   7.506   7.182   1.759 -0.4314  0.0334  1.1520
   38MOL   H27312187   7.519   7.028   1.815 -0.7609 -2.4360 -3.8053
   38MOL   C27412188   7.378   7.047   1.662  0.8862  0.0081  0.6810
   38MOL   C27512189   7.281   7.143   1.598  0.3656  0.5496  0.2832
   38MOL   C27612190   7.166   7.092   1.534  0.2504  0.1186 -0.0861
   38MOL   C27712191   7.079   7.170   1.457  0.3131 -0.5941 -0.4475
   38MOL  Cl27812192   6.934   7.109   1.399  0.2004 -0.6185  0.4100
   38MOL   C27912193   7.099   7.310   1.455 -1.1228  0.3233  0.2662
   38MOL   C28012194   7.212   7.360   1.524 -0.2948 -0.3224 -1.1024
   38MOL   C28112195   7.309   7.281   1.589  0.5380  0.0859  0.2352
   38MOL   C28212196   7.497   7.003   1.566  0.4747  0.6540 -0.2405
   38MOL   H28312197   7.322   6.957   1.686  2.2262 -0.9507  0.2615
   38MOL   H28412198   7.149   6.986   1.542  0.6029  0.1709  1.6303
   38MOL   H28512199   7.035   7.372   1.395 -1.3194  0.4101  0.5669
   38MOL   H28612200   7.228   7.466   1.508  2.4068 -0.7387 -1.3756
   38MOL   H28712201   7.409   7.316   1.611  0.3581  0.0818  1.1021
   38MOL   H28812202   7.551   7.095   1.544  1.4565  0.3993  1.0553
   38MOL   H28912203   7.557   6.924   1.611  0.5377 -0.3731 -2.0582
   38MOL   C29012204   7.453   6.946   1.427  0.3600  0.2893 -0.6344
   38MOL   C29112205   7.563   6.963   1.316  0.2383  0.0645 -0.1947
   38MOL   C29212206   7.543   7.044   1.199  0.4065 -0.0241 -0.5647
   38MOL   C29312207   7.646   7.067   1.104 -0.0478  0.0376 -0.2971
   38MOL  Cl29412208   7.619   7.155   0.960 -0.1935  0.0060 -0.0936
   38MOL   C29512209   7.760   7.004   1.120 -0.4180 -0.2902  0.1667
   38MOL   C29612210   7.787   6.923   1.230 -0.7186 -0.5901  0.9599
   38MOL   C29712211   7.688   6.902   1.328 -0.1225  0.4086 -0.0458
   38MOL   C29812212   7.388   6.805   1.436  0.3336 -0.0028  0.2329
   38MOL   H29912213   7.374   7.015   1.396  1.3999  2.0023  0.4082
   38MOL   H30012214   7.448   7.094   1.188 -0.7749 -1.5234  2.1824
   38MOL   H30112215   7.838   7.018   1.045 -0.9698  0.1745 -0.3259
   38MOL   H30212216   7.882   6.873   1.242  0.1797  0.5569 -1.1477
   38MOL   H30312217   7.699   6.831   1.409 -1.4519  1.1060  0.7566
   38MOL   H30412218   7.456   6.738   1.489 -2.6509 -1.3645  2.4330
   38MOL   H30512219   7.306   6.816   1.507  0.9818 -0.0874  1.0036
   38MOL   C30612220   7.333   6.749   1.303 -0.0184 -0.0129  0.5260
   38MOL   C30712221   7.302   6.601   1.308  0.1194  0.8283 -0.2058
   38MOL   C30812222   7.190   6.551   1.373 -0.2576  0.0786  0.0472
   38MOL   C30912223   7.168   6.409   1.375  0.1480  0.6620  0.0597
   38MOL  Cl31012224   7.015   6.348   1.434  0.0190  0.0405 -0.5668
   38MOL   C31112225   7.256   6.321   1.318 -0.1753 -0.2905  0.4583
   38MOL   C31212226   7.368   6.375   1.251 -0.0700 -0.8485 -0.1177
   38MOL   C31312227   7.382   6.512   1.233 -0.1655  0.2461 -0.5512
   38MOL   C31412228   7.215   6.830   1.239  0.2077  0.4397 -0.0270
   38MOL   H31512229   7.419   6.755   1.236 -1.4029  1.0379 -1.2072
   38MOL   H31612230   7.134   6.626   1.428 -0.5876  1.9087 -2.7238
   38MOL   H31712231   7.233   6.217   1.338 -1.2409 -0.5321 -1.8173
   38MOL   H31812232   7.441   6.313   1.201 -0.7508 -1.2717 -0.5951
   38MOL   H31912233   7.465   6.545   1.172 -1.3524 -1.4829 -3.1913
   38MOL   H32012234   7.233   6.937   1.240  2.4324  0.1037 -0.7573
   38MOL   H32112235   7.194   6.793   1.138 -0.6513  0.2334  0.2245
   38MOL   H32212236   7.127   6.814   1.300  1.3649 -1.1987  1.2934
   39MOL     C112237   2.280   3.703   8.350  0.9978 -0.2373  0.1029
   39MOL     C212238   2.206   3.733   8.216  0.1940  0.1346 -0.1496
   39MOL     C312239   2.276   3.715   8.095  0.4154 -0.5108  0.3348
   39MOL     C412240   2.199   3.730   7.977  0.2088 -0.4476  0.0202
   39MOL    Cl512241   2.274   3.702   7.826  0.1689  0.0288 -0.2008
   39MOL     C612242   2.060   3.756   7.980 -0.8283 -0.2255 -0.1233
   39MOL     C712243   1.993   3.758   8.100 -0.2439 -0.2437  0.0362
   39MOL     C812244   2.069   3.750   8.222 -0.8016  0.1627 -0.0858
   39MOL     C912245   2.230   3.779   0.038  0.4631  0.2785  0.7030
   39MOL    H1012246   2.382   3.739   8.336  1.2594 -1.3281 -0.8441
   39MOL    H1112247   2.382   3.693   8.090  0.3038 -0.6176 -1.8633
   39MOL    H1212248   2.003   3.776   7.890 -0.0171  1.9851 -0.1734
   39MOL    H1312249   1.888   3.782   8.097  0.0417  0.9272 -0.7206
   39MOL    H1412250   2.017   3.743   8.316 -1.9715  1.2499 -0.6428
   39MOL    H1512251   2.191   3.873   0.000  1.5506  0.6822  0.5630
   39MOL    H1612252   2.146   3.716   0.068  0.2897  0.0731 -0.1842
   39MOL    H1712253   2.289   3.596   8.370  1.2359 -0.3868 -0.7917
   39MOL    C1812254   2.341   3.809   0.151 -0.3522  0.0723  0.1959
   39MOL    C1912255   2.463   3.891   0.114 -0.3582 -0.0688  0.7071
   39MOL    C2012256   2.447   4.017   0.064  0.0551 -0.5387 -0.5033
   39MOL    C2112257   2.562   4.096   0.035 -0.2502 -0.2254  0.4060
   39MOL   Cl2212258   2.543   4.252   8.404 -0.0793 -0.3131 -0.0776
   39MOL    C2312259   2.691   4.043   0.046 -0.0977 -0.1222 -0.2554
   39MOL    C2412260   2.712   3.919   0.101 -0.0450  0.3621 -0.1863
   39MOL    C2512261   2.593   3.846   0.136 -0.7415  0.1118 -0.3678
   39MOL    C2612262   2.273   3.894   0.266 -0.4460  0.2793  0.1772
   39MOL    H2712263   2.377   3.715   0.193  0.3576  0.3829  0.3016
   39MOL    H2812264   2.351   4.068   0.063  0.2043 -0.2276  0.5930
   39MOL    H2912265   2.768   4.107   0.007 -0.5951  0.6904  0.0850
   39MOL    H3012266   2.805   3.865   0.108 -0.6039 -0.6748 -0.6476
   39MOL    H3112267   2.609   3.751   0.186  1.3267  0.7923  0.3434
   39MOL    H3212268   2.360   3.923   0.325  0.0576  1.4062 -1.0970
   39MOL    H3312269   2.228   3.983   0.221  0.3807  0.9614  0.6918
   39MOL    C3412270   2.161   3.814   0.347 -0.0669 -1.7262  0.7973
   39MOL    C3512271   2.221   3.721   0.448 -0.0782 -1.1914 -0.5662
   39MOL    C3612272   2.205   3.587   0.439 -0.6685 -0.2639 -0.0617
   39MOL    C3712273   2.259   3.498   0.534  0.5719 -0.3210  0.0990
   39MOL   Cl3812274   2.224   3.328   0.523 -0.5736  0.1680 -0.1529
   39MOL    C3912275   2.324   3.548   0.650  0.0177  0.0477  0.5592
   39MOL    C4012276   2.338   3.684   0.662 -0.1114  0.5552 -0.0835
   39MOL    C4112277   2.284   3.766   0.564 -0.3998  0.2916  1.2605
   39MOL    C4212278   2.050   3.901   0.413 -0.3919 -0.1158  0.2948
   39MOL    H4312279   2.107   3.759   0.270  1.9009 -2.5911  0.0018
   39MOL    H4412280   2.148   3.543   0.358  0.2751 -1.7727  0.0873
   39MOL    H4512281   2.371   3.475   0.716  2.2495 -0.1762 -1.2130
   39MOL    H4612282   2.399   3.739   0.732 -1.2487  0.9716  0.5876
   39MOL    H4712283   2.275   3.871   0.585  0.5961  0.5853  0.2541
   39MOL    H4812284   2.004   3.838   0.489  2.3523 -0.8407  1.4080
   39MOL    H4912285   2.099   3.986   0.460 -1.5006  1.3335 -1.1051
   39MOL    C5012286   1.927   3.935   0.337 -0.1670 -0.5062 -0.6763
   39MOL    C5112287   1.811   3.976   0.433 -0.2889 -0.1531  0.7250
   39MOL    C5212288   1.802   4.100   0.486 -0.3440  0.3105  0.3962
   39MOL    C5312289   1.690   4.132   0.567 -0.3973 -1.0206 -0.0663
   39MOL   Cl5412290   1.683   4.291   0.648  0.3235  0.5360 -0.0141
   39MOL    C5512291   1.583   4.048   0.579 -0.0426  0.0294  0.3566
   39MOL    C5612292   1.585   3.918   0.529  0.4181  0.6409 -0.1114
   39MOL    C5712293   1.703   3.886   0.453  0.7038  0.8601 -0.1145
   39MOL    C5812294   1.941   4.039   0.222  0.5909  0.5065  0.1993
   39MOL    H5912295   1.891   3.861   0.266  0.1034 -2.5708  1.2890
   39MOL    H6012296   1.882   4.173   0.476 -2.3489  2.4372 -0.6204
   39MOL    H6112297   1.498   4.085   0.634  0.1078 -1.0777  1.3484
   39MOL    H6212298   1.506   3.850   0.559  0.5564  0.9938  1.0606
   39MOL    H6312299   1.711   3.782   0.423  1.9242  1.4845 -2.0564
   39MOL    H6412300   1.997   4.126   0.257  1.1448  0.0789  0.3815
   39MOL    H6512301   2.003   3.987   0.149 -0.3695 -2.1051  1.1904
   39MOL    C6612302   1.817   4.090   0.147  0.3120 -0.0893 -0.2236
   39MOL    C6712303   1.863   4.194   0.046 -0.6231  0.0668 -0.6073
   39MOL    C6812304   1.938   4.165   8.363  0.0744  0.6954 -0.8205
   39MOL    C6912305   1.981   4.267   8.282 -0.1221  0.3249  0.7563
   39MOL   Cl7012306   2.069   4.232   8.140 -0.0871 -0.4093 -0.8043
   39MOL    C7112307   1.945   4.401   8.310 -0.0093 -0.5017 -0.1981
   39MOL    C7212308   1.875   4.431   8.427  0.4366 -0.3600 -1.1374
   39MOL    C7312309   1.834   4.326   0.077 -0.1383  0.3090 -1.2452
   39MOL    C7412310   1.720   3.982   0.083  0.0014  0.2018  0.3293
   39MOL    H7512311   1.752   4.144   0.216  1.6720  2.6786 -1.0403
   39MOL    H7612312   1.967   4.066   8.332 -1.0682  0.9265 -2.6986
   39MOL    H7712313   1.979   4.479   8.244 -0.0355  0.3292  0.7656
   39MOL    H7812314   1.862   4.536   0.012 -2.1366 -0.7012 -0.8724
   39MOL    H7912315   1.784   4.345   0.171 -1.5022 -0.8604 -1.7034
   39MOL    H8012316   1.770   3.931   0.001  0.6680 -1.3107  1.6500
   39MOL    H8112317   1.706   3.902   0.156 -0.5508  0.6981  0.7712
   39MOL    C8212318   1.577   4.025   0.039 -0.3008 -0.2705  0.3041
   39MOL    C8312319   1.586   4.114   8.353 -0.6157 -0.6136  0.6970
   39MOL    C8412320   1.652   4.073   8.233 -0.2690  0.3176 -1.4651
   39MOL    C8512321   1.676   4.158   8.126 -0.3995 -0.3342 -0.5878
   39MOL   Cl8612322   1.761   4.105   7.984  0.2251  0.1840  0.3045
   39MOL    C8712323   1.642   4.294   8.140  0.5791 -0.0537  0.4679
   39MOL    C8812324   1.569   4.338   8.251 -0.2931  0.9538  0.4113
   39MOL    C8912325   1.543   4.246   8.357  0.9553  0.0119  0.4777
   39MOL    C9012326   1.481   3.903   0.022  0.0846 -0.1415 -0.0956
   39MOL    H9112327   1.547   4.082   0.127 -0.2018 -0.6169  0.5625
   39MOL    H9212328   1.690   3.972   8.220  2.9748  1.3009 -0.1791
   39MOL    H9312329   1.659   4.367   8.062  3.6467 -1.7734 -0.5534
   39MOL    H9412330   1.553   4.443   8.273  0.0385  0.9092  0.8759
   39MOL    H9512331   1.501   4.271   0.018 -1.0874 -1.1160 -0.1017
   39MOL    H9612332   1.410   3.928   8.378  0.1182 -1.4960 -0.5681
   39MOL    H9712333   1.538   3.824   8.409  0.1617  0.8625 -1.6923
   39MOL    C9812334   1.399   3.869   0.145 -0.1630  0.0809  0.3729
   39MOL    C9912335   1.317   3.985   0.197  0.6028  0.8868  0.2697
   39MOL   C10012336   1.305   3.988   0.338  0.5037 -0.1569 -0.2166
   39MOL   C10112337   1.240   4.091   0.404  0.1768  0.1009 -0.1610
   39MOL  Cl10212338   1.221   4.107   0.577  0.2187 -0.0198 -0.2974
   39MOL   C10312339   1.177   4.187   0.326  0.5981  0.7296  0.0069
   39MOL   C10412340   1.185   4.184   0.185  0.1622  0.3079  0.3514
   39MOL   C10512341   1.257   4.080   0.116 -0.0082 -0.0401 -0.7044
   39MOL   C10612342   1.310   3.745   0.129 -0.5744 -0.1471  0.5435
   39MOL   H10712343   1.472   3.856   0.224 -0.0217 -0.3345  0.1754
   39MOL   H10812344   1.349   3.910   0.398 -0.5904 -0.1433  0.6303
   39MOL   H10912345   1.131   4.273   0.372 -0.3503 -0.1442  0.7039
   39MOL   H11012346   1.151   4.260   0.117  2.3960  0.5245 -0.5467
   39MOL   H11112347   1.258   4.067   0.009  0.8139 -1.0222 -0.5853
   39MOL   H11212348   1.238   3.739   0.211 -1.5693  0.5265 -0.2754
   39MOL   H11312349   1.248   3.751   0.039 -0.0857  2.0375  0.3441
   39MOL   C11412350   1.371   3.605   0.126 -0.5016  0.2478  0.0901
   39MOL   C11512351   1.452   3.578   0.259  0.9236 -0.1935  0.2807
   39MOL   C11612352   1.591   3.536   0.249 -0.0482 -0.1922 -0.1934
   39MOL   C11712353   1.667   3.518   0.365 -0.4731 -1.0971 -0.4420
   39MOL  Cl11812354   1.841   3.487   0.367 -0.0559  0.3621 -0.1103
   39MOL   C11912355   1.607   3.540   0.492  0.1185 -0.0907  0.4367
   39MOL   C12012356   1.467   3.578   0.498  1.1278  0.2690 -0.2284
   39MOL   C12112357   1.392   3.595   0.379  0.1969  0.1608  0.0100
   39MOL   C12212358   1.275   3.490   0.099  0.1931  0.8341 -0.3054
   39MOL   H12312359   1.446   3.593   0.048 -0.9486 -3.7894  0.1876
   39MOL   H12412360   1.643   3.539   0.154  1.7287 -0.1251  0.7644
   39MOL   H12512361   1.665   3.526   0.581 -0.2750 -3.0173  0.2890
   39MOL   H12612362   1.422   3.594   0.595  2.1607 -1.0537  0.5076
   39MOL   H12712363   1.288   3.623   0.381  0.7874  2.4224  1.5867
   39MOL   H12812364   1.180   3.503   0.151  0.0778 -0.5727 -0.1325
   39MOL   H12912365   1.254   3.503   8.428 -0.3411 -1.1908 -0.4704
   39MOL   C13012366   1.322   3.347   0.137 -0.5642  0.6856 -0.3123
   39MOL   C13112367   1.263   3.298   0.275 -0.0438  0.4868  0.3570
   39MOL   C13212368   1.132   3.250   0.290 -0.5168 -0.1614  0.4920
   39MOL   C13312369   1.092   3.175   0.408 -0.2467  0.4216 -0.2584
   39MOL  Cl13412370   0.937   3.098   0.435 -0.1597 -0.3300  0.1700
   39MOL   C13512371   1.180   3.177   0.517 -1.2503 -0.4021  0.2242
   39MOL   C13612372   1.306   3.236   0.506  0.4437  0.5696  0.3281
   39MOL   C13712373   1.355   3.284   0.385 -0.9077 -0.3841  0.6937
   39MOL   C13812374   1.311   3.245   0.026 -0.4154  0.3528 -0.7243
   39MOL   H13912375   1.428   3.348   0.161 -0.7673  0.8258  0.6122
   39MOL   H14012376   1.076   3.242   0.197  1.2869 -2.0273 -0.4861
   39MOL   H14112377   1.142   3.137   0.610  2.4532 -0.9455  1.5886
   39MOL   H14212378   1.379   3.238   0.585  2.3384  0.4915 -1.3780
   39MOL   H14312379   1.456   3.323   0.384 -1.1643  0.4000  2.5244
   39MOL   H14412380   1.375   3.165   0.061  0.6533  0.7204 -1.7792
   39MOL   H14512381   1.218   3.190   0.030 -0.4608  0.2392 -2.7159
   39MOL   C14612382   1.362   3.269   8.321 -0.0682 -0.2869 -0.3490
   39MOL   C14712383   1.482   3.364   8.302  0.5253 -0.0733  0.5548
   39MOL   C14812384   1.469   3.486   8.231  0.0825  0.0400 -0.7747
   39MOL   C14912385   1.575   3.570   8.212 -0.1665  0.4627  0.0380
   39MOL  Cl15012386   1.545   3.723   8.122  0.2304  0.1189 -0.3981
   39MOL   C15112387   1.704   3.528   8.246  0.2622  0.5280 -0.9233
   39MOL   C15212388   1.714   3.408   8.330 -0.3578 -0.4373 -0.3329
   39MOL   C15312389   1.604   3.327   8.363  0.2898 -0.3221 -0.4545
   39MOL   C15412390   1.376   3.142   8.227 -0.8968  0.1535 -0.3579
   39MOL   H15512391   1.270   3.313   8.282 -0.7887 -0.6331  0.9094
   39MOL   H15612392   1.371   3.514   8.195 -0.3516 -0.8047 -0.2727
   39MOL   H15712393   1.793   3.587   8.235  1.8508 -1.8064 -1.0071
   39MOL   H15812394   1.809   3.387   8.377 -1.3139 -0.9303  1.4366
   39MOL   H15912395   1.609   3.247   8.435  2.3264 -0.0899 -0.3207
   39MOL   H16012396   1.435   3.067   8.280 -1.0366  0.1015 -0.2777
   39MOL   H16112397   1.274   3.107   8.214 -1.3911  2.0198 -1.8127
   39MOL   C16212398   1.414   3.157   8.073 -1.0463  0.3322  0.3051
   39MOL   C16312399   1.557   3.204   8.042  0.1363  0.0395  0.4514
   39MOL   C16412400   1.674   3.137   8.089 -0.0368 -0.0031 -0.0111
   39MOL   C16512401   1.804   3.180   8.057 -0.3957  0.0033 -0.6320
   39MOL  Cl16612402   1.938   3.096   8.132  0.1905  0.2847 -0.1934
   39MOL   C16712403   1.823   3.294   7.980 -0.3204 -0.0549 -0.1098
   39MOL   C16812404   1.706   3.362   7.944 -0.3845  0.4169 -0.4250
   39MOL   C16912405   1.576   3.318   7.968 -0.0539 -0.6114 -0.2629
   39MOL   C17012406   1.396   3.021   8.006 -0.6817 -0.4635 -0.3951
   39MOL   H17112407   1.344   3.234   8.040  1.6914  2.5973 -0.3371
   39MOL   H17212408   1.666   3.048   8.150  0.7029 -1.9385 -2.6559
   39MOL   H17312409   1.921   3.332   7.955  0.1884 -1.3941 -0.1756
   39MOL   H17412410   1.716   3.457   7.895  0.7818  0.4759 -0.1016
   39MOL   H17512411   1.491   3.381   7.945  0.0728 -0.4494 -0.2814
   39MOL   H17612412   1.463   2.947   8.049 -1.3939 -1.1250 -0.4111
   39MOL   H17712413   1.292   2.992   8.025  0.3872 -3.2809  1.4759
   39MOL   C17812414   1.415   3.006   7.854 -0.0753 -0.7958  0.3477
   39MOL   C17912415   1.392   2.861   7.821 -0.2335  0.0307 -0.1542
   39MOL   C18012416   1.267   2.810   7.795  0.0370 -0.0209 -0.4583
   39MOL   C18112417   1.252   2.672   7.757  0.0171  0.1534 -0.4719
   39MOL  Cl18212418   1.088   2.628   7.730 -0.1373 -0.1158 -0.1277
   39MOL   C18312419   1.366   2.591   7.743 -0.0706 -0.4255 -0.1510
   39MOL   C18412420   1.491   2.646   7.774 -0.0338 -0.3256 -0.1374
   39MOL   C18512421   1.509   2.783   7.798  0.1452  0.4413  0.2281
   39MOL   C18612422   1.324   3.097   7.757  0.4432  0.0032 -0.3185
   39MOL   H18712423   1.516   3.034   7.823  0.0571  0.0491  1.5408
   39MOL   H18812424   1.178   2.870   7.790 -1.3381 -2.1134 -1.9267
   39MOL   H18912425   1.350   2.486   7.725 -1.3118 -0.0507 -1.3707
   39MOL   H19012426   1.576   2.580   7.775  1.6615  1.8369  1.1721
   39MOL   H19112427   1.609   2.820   7.819  1.2188 -2.3699  0.2285
   39MOL   H19212428   1.221   3.105   7.792  0.5736  1.1384 -0.1745
   39MOL   H19312429   1.357   3.201   7.757 -1.6671  0.7102 -1.2125
   39MOL   C19412430   1.328   3.059   7.603  0.1786 -0.4001 -0.1048
   39MOL   C19512431   1.196   3.132   7.536  0.4366 -0.5945 -0.2065
   39MOL   C19612432   1.082   3.057   7.489 -0.1225  0.3581  0.8926
   39MOL   C19712433   0.974   3.120   7.429 -0.5360 -0.6578 -0.0458
   39MOL  Cl19812434   0.845   3.026   7.376 -0.0771  0.7057  0.1544
   39MOL   C19912435   0.965   3.256   7.430 -0.0962  0.4939  0.0491
   39MOL   C20012436   1.068   3.334   7.483 -0.2923  0.4426 -0.7160
   39MOL   C20112437   1.181   3.269   7.538 -0.4895 -0.6642 -0.1505
   39MOL   C20212438   1.459   3.117   7.523  0.3470 -0.0898 -0.3834
   39MOL   H20312439   1.314   2.953   7.585 -0.1247 -0.2181 -0.9673
   39MOL   H20412440   1.088   2.949   7.492 -1.2394  0.2185 -0.7425
   39MOL   H20512441   0.877   3.302   7.388 -0.5220 -1.2579 -1.0328
   39MOL   H20612442   1.051   3.440   7.495  0.0313  0.4034  0.1459
   39MOL   H20712443   1.253   3.331   7.589 -1.9798  0.3718  0.7087
   39MOL   H20812444   1.458   3.226   7.519  0.1067 -0.0719  0.1130
   39MOL   H20912445   1.550   3.075   7.566  0.0137 -0.7457 -0.3170
   39MOL   C21012446   1.473   3.063   7.380 -1.0934 -0.3657 -0.4213
   39MOL   C21112447   1.580   3.142   7.309 -0.9446  0.4129  0.1917
   39MOL   C21212448   1.718   3.105   7.302  0.4063  0.0060 -0.2951
   39MOL   C21312449   1.807   3.182   7.228 -0.3487 -0.0506 -0.3904
   39MOL  Cl21412450   1.968   3.136   7.196 -0.5455 -0.3958 -0.1135
   39MOL   C21512451   1.764   3.292   7.156  0.5954 -0.1448  0.6657
   39MOL   C21612452   1.625   3.335   7.172 -0.2286  0.8683  0.2729
   39MOL   C21712453   1.538   3.264   7.251  0.3778 -0.2140 -0.0860
   39MOL   C21812454   1.476   2.913   7.355  0.3784 -0.1351 -0.2269
   39MOL   H21912455   1.379   3.085   7.331 -1.6295 -1.4512  0.1126
   39MOL   H22012456   1.764   3.019   7.349  3.1663  0.0978 -2.7120
   39MOL   H22112457   1.829   3.352   7.095 -2.4321  1.2182 -1.3784
   39MOL   H22212458   1.594   3.434   7.140  0.1128  0.8394 -0.1653
   39MOL   H22312459   1.438   3.302   7.263  1.5735  3.7197 -1.8203
   39MOL   H22412460   1.569   2.868   7.390 -0.4473 -0.3696  1.7462
   39MOL   H22512461   1.416   2.855   7.425 -0.8325  0.3341 -0.8646
   39MOL   C22612462   1.421   2.874   7.216 -0.4812 -0.1796 -0.6898
   39MOL   C22712463   1.521   2.916   7.106 -0.0568  0.6947 -0.4296
   39MOL   C22812464   1.647   2.852   7.089 -0.7853 -0.4586  0.2375
   39MOL   C22912465   1.734   2.889   6.991 -0.0997 -1.0426  0.3351
   39MOL  Cl23012466   1.893   2.823   6.975 -0.1194 -0.0334  0.1769
   39MOL   C23112467   1.691   2.987   6.898 -0.4505 -0.1695 -0.1552
   39MOL   C23212468   1.569   3.055   6.912  0.0418 -0.9878  0.5348
   39MOL   C23312469   1.488   3.025   7.022 -0.2831 -0.4958  0.4542
   39MOL   C23412470   1.404   2.718   7.222  0.1290  0.1450  0.0700
   39MOL   H23512471   1.326   2.923   7.195 -1.0756 -1.0123  0.0439
   39MOL   H23612472   1.679   2.767   7.147  3.2108 -0.7902 -2.2031
   39MOL   H23712473   1.749   3.016   6.812  0.0926 -1.3468 -0.1875
   39MOL   H23812474   1.542   3.137   6.846  0.5480 -0.5980  0.8050
   39MOL   H23912475   1.392   3.071   7.039 -0.7321 -0.4583 -2.0539
   39MOL   H24012476   1.500   2.668   7.234 -0.2460 -1.4426 -2.8623
   39MOL   H24112477   1.344   2.683   7.305  1.0084 -0.5825  0.4106
   39MOL   C24212478   1.346   2.667   7.080  0.6025 -1.0126  0.4211
   39MOL   C24312479   1.350   2.518   7.069 -0.1652 -0.2612  0.1032
   39MOL   C24412480   1.258   2.431   7.128 -0.1218  0.0043 -0.0248
   39MOL   C24512481   1.273   2.291   7.121  0.0054  0.4055  0.1867
   39MOL  Cl24612482   1.150   2.188   7.177  0.3385 -0.4134  0.0683
   39MOL   C24712483   1.390   2.241   7.058 -0.0301 -0.0295  0.0928
   39MOL   C24812484   1.492   2.325   7.012 -0.5334 -0.0399 -0.2733
   39MOL   C24912485   1.470   2.462   7.016 -0.1317  0.2293 -0.3593
   39MOL   C25012486   1.199   2.717   7.057  0.4629  0.3205  0.0078
   39MOL   H25112487   1.401   2.709   6.996  0.3559  0.1673  0.8490
   39MOL   H25212488   1.176   2.468   7.187  0.5203 -1.6073  1.9563
   39MOL   H25312489   1.411   2.135   7.056 -0.2283 -0.0669 -0.0832
   39MOL   H25412490   1.584   2.286   6.969  0.0600  1.1839 -0.1557
   39MOL   H25512491   1.544   2.528   6.974 -1.3869  1.0277 -1.3524
   39MOL   H25612492   1.127   2.638   7.034  0.1497  0.3909  0.7134
   39MOL   H25712493   1.167   2.760   7.152 -2.6221  1.3801 -1.4308
   39MOL   C25812494   1.182   2.814   6.937  0.2625  0.4077  0.0488
   39MOL   C25912495   1.223   2.754   6.803  0.1385  0.4991 -0.0881
   39MOL   C26012496   1.170   2.626   6.761 -0.1772 -0.3477 -0.5163
   39MOL   C26112497   1.208   2.573   6.640 -0.5080 -0.2151  0.1635
   39MOL  Cl26212498   1.131   2.425   6.583  0.3599  0.3474 -0.2010
   39MOL   C26312499   1.301   2.645   6.557 -0.1031  0.0626  0.0754
   39MOL   C26412500   1.355   2.765   6.600 -0.0622  0.2395 -0.7059
   39MOL   C26512501   1.317   2.820   6.725 -0.4671 -0.9817  0.3327
   39MOL   C26612502   1.042   2.882   6.944  0.7160  0.5558  0.2652
   39MOL   H26712503   1.252   2.894   6.962  0.3306  0.0657  1.0046
   39MOL   H26812504   1.100   2.580   6.829 -0.1710  0.8986  0.3292
   39MOL   H26912505   1.324   2.589   6.468  0.5486 -0.3356  0.4859
   39MOL   H27012506   1.424   2.820   6.537  1.5106  0.3320  1.0336
   39MOL   H27112507   1.359   2.917   6.750  2.1470 -1.9256 -0.2943
   39MOL   H27212508   1.008   2.895   6.841  1.7878 -2.2293 -0.5055
   39MOL   H27312509   0.979   2.797   6.972 -1.5222  1.0754 -2.8979
   39MOL   C27412510   1.025   3.016   7.024 -0.3054 -0.5179 -0.6222
   39MOL   C27512511   1.103   3.139   6.972  0.0304  0.3338  0.0357
   39MOL   C27612512   1.120   3.244   7.063 -0.3578  0.1966 -0.3425
   39MOL   C27712513   1.201   3.355   7.028  0.3944 -0.3142 -0.8133
   39MOL  Cl27812514   1.211   3.478   7.147 -0.3441  0.4249  0.0733
   39MOL   C27912515   1.248   3.374   6.895 -0.5200 -0.5302  0.4284
   39MOL   C28012516   1.212   3.275   6.798  0.0708  0.0385 -0.3475
   39MOL   C28112517   1.146   3.156   6.840 -0.4838  0.0552  0.8437
   39MOL   C28212518   0.869   3.039   7.044  0.2137 -0.4753 -0.1451
   39MOL   H28312519   1.068   2.996   7.122 -1.7443 -0.9807 -0.0743
   39MOL   H28412520   1.083   3.232   7.164 -2.7245 -0.0616 -1.2155
   39MOL   H28512521   1.314   3.451   6.859  0.5994 -2.1936 -1.1802
   39MOL   H28612522   1.241   3.285   6.695  0.3226 -1.4109 -0.4240
   39MOL   H28712523   1.129   3.085   6.760  0.9154  0.9337 -0.2589
   39MOL   H28812524   0.830   2.949   7.090 -1.4537  0.5045  0.4036
   39MOL   H28912525   0.854   3.118   7.118  0.9071 -0.0642 -0.4400
   39MOL   C29012526   0.784   3.063   6.914 -0.1065 -0.1103  0.1623
   39MOL   C29112527   0.678   2.957   6.895  0.0528  0.0022 -0.3777
   39MOL   C29212528   0.554   2.974   6.953  0.4206 -0.2003 -0.7515
   39MOL   C29312529   0.454   2.874   6.941 -0.5618  0.1262  0.8613
   39MOL  Cl29412530   0.312   2.890   7.043  0.2247 -0.1023  0.1901
   39MOL   C29512531   0.475   2.763   6.860  0.3839 -0.1343  0.1063
   39MOL   C29612532   0.597   2.741   6.801 -0.2710  0.0055 -0.0960
   39MOL   C29712533   0.700   2.838   6.823 -0.3618  0.5612  0.0824
   39MOL   C29812534   0.739   3.205   6.908  0.2840  0.2085  0.9995
   39MOL   H29912535   0.851   3.051   6.829  0.2136 -1.7576  0.6188
   39MOL   H30012536   0.523   3.056   7.017  2.4707  0.0457 -0.0408
   39MOL   H30112537   0.392   2.697   6.842  0.4187  0.8943 -4.3157
   39MOL   H30212538   0.609   2.657   6.734  0.3333 -0.6258  0.7928
   39MOL   H30312539   0.799   2.810   6.788 -1.3759 -1.0142 -1.6207
   39MOL   H30412540   0.668   3.213   6.991  0.2319  0.5335  0.9251
   39MOL   H30512541   0.823   3.271   6.927 -0.7017  1.1651  2.1002
   39MOL   C30612542   0.667   3.250   6.782 -0.1636  0.7419 -0.0114
   39MOL   C30712543   0.591   3.372   6.820 -0.2650  0.1117  0.0041
   39MOL   C30812544   0.662   3.493   6.838  0.3210  0.0343  0.2294
   39MOL   C30912545   0.585   3.611   6.860  0.0136  0.3508 -0.4574
   39MOL  Cl31012546   0.672   3.752   6.900 -0.0104 -0.3623 -0.3482
   39MOL   C31112547   0.443   3.605   6.855 -0.2050  0.2172 -0.4002
   39MOL   C31212548   0.366   3.490   6.830 -0.0292 -0.2124 -0.0860
   39MOL   C31312549   0.449   3.373   6.824  0.2896  0.6072  0.2435
   39MOL   C31412550   0.761   3.286   6.663  0.1665 -0.9699 -0.4795
   39MOL   H31512551   0.598   3.171   6.750  1.5746 -0.9434  0.3283
   39MOL   H31612552   0.770   3.497   6.831  0.4543 -1.0238  1.5660
   39MOL   H31712553   0.387   3.695   6.874 -0.9980  0.3134 -3.0370
   39MOL   H31812554   0.260   3.494   6.813  0.1311  0.5826 -0.9891
   39MOL   H31912555   0.396   3.282   6.801 -2.5394  1.6079  2.5399
   39MOL   H32012556   0.842   3.352   6.694  0.2426 -1.2904  0.0069
   39MOL   H32112557   0.807   3.198   6.619  2.6474  0.3884 -0.7059
   39MOL   H32212558   0.700   3.332   6.585  1.3964  1.0459 -0.3004
   40MOL     C112559   1.155   5.780   4.918  0.2504  0.1754 -0.1563
   40MOL     C212560   1.119   5.781   4.773 -0.6556  0.2472  0.5856
   40MOL     C312561   1.062   5.891   4.714 -0.2275 -0.4664  0.4020
   40MOL     C412562   1.069   5.898   4.577 -0.7945 -0.2386 -0.6880
   40MOL    Cl512563   1.040   6.050   4.497 -0.0539 -0.1036 -0.0992
   40MOL     C612564   1.113   5.789   4.499 -0.0979  0.8865  0.5451
   40MOL     C712565   1.164   5.672   4.560 -0.5713 -0.4502  0.0244
   40MOL     C812566   1.170   5.671   4.700  0.0397  0.0779 -0.3544
   40MOL     C912567   1.307   5.824   4.944 -0.0069 -0.2238 -0.0575
   40MOL    H1012568   1.153   5.674   4.944 -0.8949  0.9963  3.2590
   40MOL    H1112569   1.030   5.985   4.757 -0.1606  0.3524 -1.3045
   40MOL    H1212570   1.111   5.793   4.391 -0.5062  0.0193  0.5101
   40MOL    H1312571   1.198   5.598   4.489 -0.2595  1.9502 -2.4595
   40MOL    H1412572   1.216   5.588   4.752  3.0001  1.5114 -0.5833
   40MOL    H1512573   1.345   5.771   5.032 -1.1022  0.4079  0.7945
   40MOL    H1612574   1.364   5.773   4.866  3.5354  1.8398  1.0527
   40MOL    H1712575   1.093   5.837   4.986 -1.0301 -0.1559 -1.0217
   40MOL    C1812576   1.327   5.980   4.940 -0.5878  0.4534  0.0780
   40MOL    C1912577   1.244   6.057   5.044 -0.3905  0.3906  0.0186
   40MOL    C2012578   1.145   6.143   4.995  0.0344 -0.1823 -0.0712
   40MOL    C2112579   1.068   6.215   5.086 -0.3353  0.6939 -0.0134
   40MOL   Cl2212580   0.945   6.329   5.035 -0.1336 -0.1558 -0.2604
   40MOL    C2312581   1.097   6.202   5.223  0.8461  0.1133 -0.1154
   40MOL    C2412582   1.195   6.114   5.272 -0.2278 -0.4223 -0.9686
   40MOL    C2512583   1.273   6.042   5.184 -0.0049 -0.3851  0.4454
   40MOL    C2612584   1.464   6.044   4.931 -0.1437 -0.2834  0.1386
   40MOL    H2712585   1.286   5.992   4.840  1.4232 -2.1885 -1.1482
   40MOL    H2812586   1.115   6.156   4.892  1.7735 -0.2899 -0.6004
   40MOL    H2912587   1.036   6.252   5.296  0.9774  1.9929 -1.2594
   40MOL    H3012588   1.200   6.111   5.380 -2.5867  0.4817 -0.7929
   40MOL    H3112589   1.349   5.973   5.216  0.4119  0.3799  1.1325
   40MOL    H3212590   1.471   6.153   4.923  1.7967 -0.3542  0.4509
   40MOL    H3312591   1.502   6.027   5.032 -1.2572  1.4183  0.8656
   40MOL    C3412592   1.558   5.979   4.820 -0.1386  0.0283  0.4717
   40MOL    C3512593   1.526   6.003   4.669  0.0696 -0.9555 -0.7035
   40MOL    C3612594   1.503   5.893   4.581  0.6320 -0.1722  0.5331
   40MOL    C3712595   1.481   5.911   4.441 -0.0804 -1.0036 -0.3604
   40MOL   Cl3812596   1.450   5.776   4.339 -0.1872  0.0660 -0.1087
   40MOL    C3912597   1.476   6.045   4.396  0.4584  0.0543  0.4703
   40MOL    C4012598   1.498   6.154   4.488  1.1833  0.4325  0.2473
   40MOL    C4112599   1.522   6.136   4.625 -0.3459 -0.4317  0.3227
   40MOL    C4212600   1.709   6.002   4.847 -0.9984  0.4839  0.5444
   40MOL    H4312601   1.544   5.871   4.832  0.9778 -0.0732  0.9204
   40MOL    H4412602   1.520   5.790   4.609  0.9358 -0.1450  0.4541
   40MOL    H4512603   1.454   6.063   4.292 -1.6365 -0.3598  0.8199
   40MOL    H4612604   1.495   6.253   4.445 -1.1428  0.1571 -0.2753
   40MOL    H4712605   1.536   6.226   4.683  1.7377 -0.4801 -0.0838
   40MOL    H4812606   1.763   6.032   4.758 -4.1335  1.5186 -1.0774
   40MOL    H4912607   1.715   6.089   4.912 -0.0137 -0.1476  1.3217
   40MOL    C5012608   1.775   5.873   4.905 -0.1566  0.5436  0.5277
   40MOL    C5112609   1.754   5.741   4.821 -0.0754  0.0327  0.6129
   40MOL    C5212610   1.809   5.722   4.695  0.6561  0.1483  0.0861
   40MOL    C5312611   1.795   5.594   4.626 -0.2252 -0.0318 -0.4345
   40MOL   Cl5412612   1.876   5.566   4.478  0.4552  0.4431  0.8189
   40MOL    C5512613   1.728   5.490   4.689 -0.0700  0.1051 -0.3215
   40MOL    C5612614   1.670   5.510   4.818 -0.1880 -0.2908 -0.2700
   40MOL    C5712615   1.691   5.635   4.891  0.6914  0.3017  0.0993
   40MOL    C5812616   1.925   5.875   4.939  0.3252  0.2239  0.3370
   40MOL    H5912617   1.727   5.843   4.998 -1.4517 -1.7155 -0.8205
   40MOL    H6012618   1.856   5.806   4.647  0.5891  1.6766  2.5654
   40MOL    H6112619   1.707   5.396   4.640 -2.6116 -0.3248  1.5052
   40MOL    H6212620   1.618   5.426   4.861  0.2358 -0.1251  0.5667
   40MOL    H6312621   1.645   5.636   4.988  1.4224 -0.3398  0.4517
   40MOL    H6412622   1.960   5.772   4.952  1.5381  0.4606 -0.8817
   40MOL    H6512623   1.959   5.909   4.841  1.7249  1.1425  1.1464
   40MOL    C6612624   1.969   5.959   5.061 -0.1427 -0.2263 -0.4249
   40MOL    C6712625   1.883   5.928   5.175 -0.6850 -0.5683 -0.2854
   40MOL    C6812626   1.783   6.010   5.215 -0.4106  0.5497  0.1014
   40MOL    C6912627   1.693   5.976   5.325 -0.2479  0.2883  0.3905
   40MOL   Cl7012628   1.573   6.086   5.373 -0.2310 -0.6730  0.1756
   40MOL    C7112629   1.716   5.852   5.389  0.3171 -0.6996 -0.3094
   40MOL    C7212630   1.818   5.764   5.343 -0.1593 -0.4021  0.1628
   40MOL    C7312631   1.904   5.802   5.239  0.6234  0.8620 -0.1339
   40MOL    C7412632   2.123   5.949   5.090  0.2680 -0.3647 -0.1905
   40MOL    H7512633   1.942   6.060   5.032  1.6002  1.2210  2.7293
   40MOL    H7612634   1.773   6.103   5.162  0.7349  0.3070 -0.5600
   40MOL    H7712635   1.657   5.822   5.474  1.9364  1.5509  1.6618
   40MOL    H7812636   1.845   5.666   5.382 -0.6263 -0.7436 -0.3621
   40MOL    H7912637   1.981   5.735   5.203  0.2933  1.5188 -2.1144
   40MOL    H8012638   2.133   6.000   5.186 -2.7077  1.2935 -0.7130
   40MOL    H8112639   2.152   5.845   5.109  0.2976 -0.1353  1.0593
   40MOL    C8212640   2.225   6.006   4.981  0.4639 -0.2853 -0.3085
   40MOL    C8312641   2.185   6.148   4.930 -0.1773 -0.8821 -0.4943
   40MOL    C8412642   2.208   6.260   5.015 -0.2845  0.0212  0.4169
   40MOL    C8512643   2.164   6.388   4.980  0.0768  0.8635 -0.6079
   40MOL   Cl8612644   2.183   6.523   5.086  0.3753  0.0127  0.1849
   40MOL    C8712645   2.103   6.407   4.853 -0.3710 -0.2197 -0.0609
   40MOL    C8812646   2.084   6.294   4.768  0.5693 -0.2554  0.0487
   40MOL    C8912647   2.116   6.167   4.809 -0.0644  0.0069 -0.8246
   40MOL    C9012648   2.366   6.003   5.038  0.1068 -0.1862  0.0300
   40MOL    H9112649   2.225   5.946   4.890  0.5050  0.8124 -1.0381
   40MOL    H9212650   2.252   6.253   5.114  0.5444 -0.0345  0.0434
   40MOL    H9312651   2.079   6.507   4.820  1.8788  0.3558 -0.0508
   40MOL    H9412652   2.033   6.302   4.673  0.3750 -0.5612  0.1269
   40MOL    H9512653   2.093   6.087   4.741  0.8916 -0.0681 -1.0732
   40MOL    H9612654   2.432   6.057   4.970 -1.3288  2.9737  1.0475
   40MOL    H9712655   2.364   6.070   5.124  4.3918  1.5789 -1.1262
   40MOL    C9812656   2.424   5.863   5.089 -0.4767  0.4685 -0.2054
   40MOL    C9912657   2.419   5.763   4.968  0.2494  0.8311 -0.6406
   40MOL   C10012658   2.499   5.787   4.852  0.0399 -0.2984 -0.1112
   40MOL   C10112659   2.489   5.705   4.737 -0.5710  0.4299 -1.0808
   40MOL  Cl10212660   2.592   5.731   4.603 -0.0905 -0.0349  0.1100
   40MOL   C10312661   2.412   5.583   4.741 -0.0120 -0.9528 -0.4116
   40MOL   C10412662   2.344   5.555   4.863  0.7803  0.2154 -1.2118
   40MOL   C10512663   2.345   5.646   4.973 -0.9079  0.5712 -0.2585
   40MOL   C10612664   2.562   5.868   5.156  0.0102  1.2151  0.1243
   40MOL   H10712665   2.360   5.823   5.168 -0.6984 -0.4606 -0.8484
   40MOL   H10812666   2.557   5.878   4.849  0.4990 -0.6089 -0.8196
   40MOL   H10912667   2.406   5.521   4.653 -1.5562  1.1904 -1.8666
   40MOL   H11012668   2.275   5.472   4.874  1.2094 -0.0917 -0.8713
   40MOL   H11112669   2.281   5.612   5.053 -0.1344  0.2574  0.2304
   40MOL   H11212670   2.629   5.925   5.090  0.5351 -0.0855 -0.4790
   40MOL   H11312671   2.548   5.940   5.237 -2.7141 -1.4779  2.1136
   40MOL   C11412672   2.631   5.734   5.194  0.5838  0.0909  0.4601
   40MOL   C11512673   2.770   5.739   5.123  0.3713 -0.1945  0.4155
   40MOL   C11612674   2.786   5.669   5.003 -0.2277 -0.4480  0.1693
   40MOL   C11712675   2.893   5.695   4.920 -0.2345 -0.2219  0.4933
   40MOL  Cl11812676   2.904   5.608   4.773  0.0888 -0.1930  0.0567
   40MOL   C11912677   2.989   5.797   4.954  0.3253  0.1365 -0.4387
   40MOL   C12012678   2.975   5.868   5.072  0.4670  0.8476 -0.6077
   40MOL   C12112679   2.856   5.846   5.153 -0.1396  0.0422  0.0545
   40MOL   C12212680   2.643   5.716   5.351  0.4809  0.4126  0.1177
   40MOL   H12312681   2.569   5.652   5.158  0.5415  0.5816 -0.6185
   40MOL   H12412682   2.714   5.594   4.972 -1.7008  1.8695 -2.1712
   40MOL   H12512683   3.073   5.829   4.894  0.0567 -1.5229 -1.7462
   40MOL   H12612684   3.049   5.943   5.093  2.1707 -1.5314  2.3163
   40MOL   H12712685   2.830   5.901   5.242 -2.4624 -0.4564 -0.2837
   40MOL   H12812686   2.703   5.627   5.370  0.3160  0.6841  1.9574
   40MOL   H12912687   2.692   5.803   5.395  0.0574  0.6021  0.2144
   40MOL   C13012688   2.502   5.706   5.417 -0.1971 -0.8121  0.0142
   40MOL   C13112689   2.426   5.580   5.379  0.0291 -0.9692 -1.0528
   40MOL   C13212690   2.489   5.455   5.390 -0.7216 -0.1756  0.3343
   40MOL   C13312691   2.417   5.338   5.375 -0.0971  0.2968  0.0364
   40MOL  Cl13412692   2.497   5.186   5.417 -0.1431  0.0981  0.1602
   40MOL   C13512693   2.279   5.345   5.328 -0.3887 -0.1985  0.3853
   40MOL   C13612694   2.223   5.466   5.294  0.5123  0.7356 -0.6962
   40MOL   C13712695   2.293   5.585   5.327  0.2514 -0.0880  0.9159
   40MOL   C13812696   2.499   5.731   5.572 -0.2185 -0.3408 -0.2458
   40MOL   H13912697   2.446   5.791   5.377  0.7814 -0.0632  0.2301
   40MOL   H14012698   2.591   5.452   5.423 -1.2484 -0.6443  1.9653
   40MOL   H14112699   2.229   5.250   5.317 -1.8922  0.8979 -2.8124
   40MOL   H14212700   2.117   5.470   5.276  0.5707 -0.8837 -1.4725
   40MOL   H14312701   2.235   5.677   5.326  0.0680 -0.2006  1.1611
   40MOL   H14412702   2.452   5.647   5.623 -0.5853  0.4262  0.6889
   40MOL   H14512703   2.603   5.724   5.603 -0.3669 -0.5181  0.2089
   40MOL   C14612704   2.455   5.866   5.628 -0.4527 -0.8820  0.1025
   40MOL   C14712705   2.311   5.895   5.591 -0.8711 -0.1773 -0.2535
   40MOL   C14812706   2.286   6.016   5.529 -0.0186 -0.1698 -0.4938
   40MOL   C14912707   2.158   6.055   5.499  0.6211 -0.3097  0.4915
   40MOL  Cl15012708   2.134   6.220   5.446  0.0640 -0.2366 -0.0550
   40MOL   C15112709   2.049   5.971   5.525  0.3266 -0.0673 -0.2963
   40MOL   C15212710   2.075   5.849   5.593  0.7309  0.5843  0.1631
   40MOL   C15312711   2.206   5.806   5.614 -0.1388 -0.0239 -0.0587
   40MOL   C15412712   2.479   5.871   5.781  0.3258  0.5014 -0.2725
   40MOL   H15512713   2.525   5.935   5.581  0.7704 -1.3159  1.2462
   40MOL   H15612714   2.358   6.092   5.504  0.0940  0.2998  1.2007
   40MOL   H15712715   1.948   6.006   5.508  0.5989  0.6046 -0.5529
   40MOL   H15812716   1.995   5.781   5.618 -0.3132  1.5434 -0.4925
   40MOL   H15912717   2.214   5.708   5.658 -0.2409  0.0088  0.0310
   40MOL   H16012718   2.411   5.804   5.833  0.7592 -0.2741 -0.6954
   40MOL   H16112719   2.576   5.825   5.804 -0.4959 -1.3622 -0.4269
   40MOL   C16212720   2.450   6.013   5.850  0.2603 -0.1339  0.4336
   40MOL   C16312721   2.333   6.009   5.957 -1.0600  0.6425 -0.0569
   40MOL   C16412722   2.352   5.967   6.090 -0.3606  0.0304 -0.3577
   40MOL   C16512723   2.249   5.967   6.184 -0.2505 -0.8654  0.4895
   40MOL  Cl16612724   2.280   5.905   6.347  0.0572  0.3442 -0.1995
   40MOL   C16712725   2.128   6.023   6.148 -0.7720 -0.2992  0.2999
   40MOL   C16812726   2.101   6.063   6.012  0.0074 -0.5073  0.0083
   40MOL   C16912727   2.202   6.051   5.917  0.6263 -0.2525  0.0204
   40MOL   C17012728   2.588   6.078   5.875  0.4015 -0.2742 -0.2646
   40MOL   H17112729   2.401   6.065   5.768 -0.7724  0.4105  1.3784
   40MOL   H17212730   2.451   5.928   6.109  0.1084  1.6883  0.6343
   40MOL   H17312731   2.042   6.017   6.213 -1.3614  0.0412 -0.4436
   40MOL   H17412732   1.996   6.081   5.998  0.4534  0.6221 -2.1135
   40MOL   H17512733   2.167   6.072   5.817  0.9155  1.1870  0.2115
   40MOL   H17612734   2.579   6.142   5.963  3.1293 -2.0376  1.3859
   40MOL   H17712735   2.660   6.006   5.912 -0.7172 -1.0836  0.3344
   40MOL   C17812736   2.651   6.154   5.747  0.1321 -0.3950 -1.1829
   40MOL   C17912737   2.563   6.250   5.666 -0.2581  0.5755 -0.7287
   40MOL   C18012738   2.573   6.267   5.529 -0.5808  0.7660 -1.0377
   40MOL   C18112739   2.514   6.381   5.472  0.7370  0.2795 -0.3309
   40MOL  Cl18212740   2.546   6.398   5.302 -0.0547  0.4217 -0.2474
   40MOL   C18312741   2.420   6.467   5.539  0.1148 -0.2588  0.1906
   40MOL   C18412742   2.390   6.427   5.666  0.1426 -0.1390  0.2758
   40MOL   C18512743   2.470   6.330   5.732 -0.0864 -0.2149  0.8264
   40MOL   C18612744   2.776   6.221   5.796 -0.5011 -0.3982 -0.1683
   40MOL   H18712745   2.681   6.080   5.673  0.2020  0.4321 -1.9766
   40MOL   H18812746   2.646   6.213   5.471 -0.0387 -0.5645  0.8748
   40MOL   H18912747   2.375   6.557   5.499 -0.1858 -0.8281 -0.7741
   40MOL   H19012748   2.340   6.501   5.726 -2.0664 -0.5361 -1.0420
   40MOL   H19112749   2.449   6.317   5.837  0.1381  1.9703  1.1668
   40MOL   H19212750   2.792   6.306   5.729 -0.3661  1.1586  1.7955
   40MOL   H19312751   2.742   6.273   5.886 -1.4704 -1.9499  0.3863
   40MOL   C19412752   2.913   6.134   5.803 -0.2184  0.3587  0.6983
   40MOL   C19512753   2.971   6.094   5.668  0.1194  0.1063 -0.3385
   40MOL   C19612754   2.952   6.172   5.550  0.0666  0.1853 -0.0019
   40MOL   C19712755   2.995   6.122   5.419  0.0710  0.7655 -0.0170
   40MOL  Cl19812756   2.972   6.224   5.285  0.1383 -0.1358 -0.0417
   40MOL   C19912757   3.065   6.001   5.408  0.6801  0.4221 -0.1980
   40MOL   C20012758   3.094   5.934   5.529  0.1465 -0.4258 -0.5348
   40MOL   C20112759   3.047   5.974   5.654 -0.5174 -0.7799 -0.9992
   40MOL   C20212760   3.026   6.205   5.874  0.1706  0.6078  0.0674
   40MOL   H20312761   2.889   6.039   5.850 -0.4138  1.1773  2.2905
   40MOL   H20412762   2.900   6.267   5.549 -0.4285 -0.0501  1.6547
   40MOL   H20512763   3.098   5.958   5.314 -0.6841 -1.2587  0.0587
   40MOL   H20612764   3.152   5.843   5.525 -1.0592 -1.2862  1.1154
   40MOL   H20712765   3.073   5.914   5.740  1.2693 -2.7660 -2.8462
   40MOL   H20812766   3.114   6.140   5.872 -0.5522 -0.3976  0.5398
   40MOL   H20912767   3.053   6.292   5.815 -2.1024  0.8521 -0.6592
   40MOL   C21012768   2.997   6.259   6.010  0.2844 -0.4297  0.8767
   40MOL   C21112769   2.997   6.146   6.108 -0.4235  0.0860 -0.1530
   40MOL   C21212770   3.118   6.086   6.161  0.9932 -0.4354  0.5512
   40MOL   C21312771   3.114   5.975   6.242  0.7143 -0.4190 -0.1749
   40MOL  Cl21412772   3.246   5.877   6.293  0.1183  0.1877  0.0660
   40MOL   C21512773   2.994   5.923   6.287  0.1011 -0.1942  0.3767
   40MOL   C21612774   2.872   5.985   6.243  0.9063  0.7825  0.0398
   40MOL   C21712775   2.875   6.103   6.160  0.2126 -0.6401  0.7340
   40MOL   C21812776   3.094   6.369   6.054 -0.2510  1.0261 -0.3616
   40MOL   H21912777   2.901   6.311   6.014  1.1285  1.3805 -1.2009
   40MOL   H22012778   3.207   6.131   6.118  1.0960 -0.7785  0.4027
   40MOL   H22112779   3.001   5.838   6.354 -0.1897 -0.8356 -0.3961
   40MOL   H22212780   2.779   5.943   6.277 -0.5448  3.1316 -0.9741
   40MOL   H22312781   2.786   6.154   6.126  0.8186  0.3647  0.6553
   40MOL   H22412782   3.073   6.404   6.155 -0.9239  1.3021 -0.5866
   40MOL   H22512783   3.199   6.344   6.055  0.2647  3.0556  1.9615
   40MOL   C22612784   3.090   6.506   5.968  0.2859 -0.1099  0.5293
   40MOL   C22712785   2.957   6.540   5.899  0.3411 -0.1506 -0.1511
   40MOL   C22812786   2.941   6.530   5.762 -0.5384 -0.3440  0.3635
   40MOL   C22912787   2.831   6.576   5.691  0.9204  0.3430 -0.1145
   40MOL  Cl23012788   2.813   6.547   5.522  0.3695  0.1728  0.0352
   40MOL   C23112789   2.720   6.623   5.767  0.0786  0.0958 -0.6895
   40MOL   C23212790   2.733   6.628   5.909  0.0189 -0.6369 -0.0232
   40MOL   C23312791   2.850   6.588   5.973 -0.4887 -0.5585  0.3355
   40MOL   C23412792   3.141   6.623   6.064 -0.4059  1.1006 -0.0578
   40MOL   H23512793   3.163   6.506   5.887 -0.7993  0.0529 -0.4443
   40MOL   H23612794   3.025   6.504   5.699 -0.9278  0.6946 -0.6015
   40MOL   H23712795   2.623   6.624   5.720 -1.1973  2.0277  1.8176
   40MOL   H23812796   2.654   6.659   5.976  1.3136 -2.3049  2.3688
   40MOL   H23912797   2.861   6.607   6.079  0.2523 -0.6915  0.2812
   40MOL   H24012798   3.066   6.634   6.141  0.1490  1.5249  0.4307
   40MOL   H24112799   3.232   6.584   6.110  0.0566  0.2399 -1.6400
   40MOL   C24212800   3.173   6.762   6.014  0.4805 -0.1763 -0.5146
   40MOL   C24312801   3.198   6.859   6.138 -0.1052 -0.5220 -0.1256
   40MOL   C24412802   3.316   6.844   6.212 -0.0141  0.3489 -0.5746
   40MOL   C24512803   3.348   6.932   6.313  0.5221 -0.0991 -0.2051
   40MOL  Cl24612804   3.490   6.900   6.408  0.0567 -0.4670 -0.0373
   40MOL   C24712805   3.272   7.043   6.335 -0.1193 -0.2579  0.6078
   40MOL   C24812806   3.154   7.057   6.262 -0.8914 -0.4148 -0.1691
   40MOL   C24912807   3.118   6.964   6.167 -0.0435 -0.6214 -0.5107
   40MOL   C25012808   3.286   6.767   5.905  0.1340  0.0133 -0.0027
   40MOL   H25112809   3.087   6.794   5.956 -1.0086 -0.8209  1.2908
   40MOL   H25212810   3.385   6.764   6.190 -0.1269  0.0987 -0.0305
   40MOL   H25312811   3.305   7.114   6.409  1.1126 -1.3025  1.0809
   40MOL   H25412812   3.099   7.150   6.274 -1.3079 -0.7618  0.6810
   40MOL   H25512813   3.028   6.985   6.111 -0.8430 -1.2572  0.5157
   40MOL   H25612814   3.374   6.721   5.949  1.3287  0.4996 -1.8313
   40MOL   H25712815   3.259   6.706   5.819  1.5123 -1.2927  0.4816
   40MOL   C25812816   3.332   6.903   5.852 -0.4269 -0.5012 -0.1037
   40MOL   C25912817   3.464   6.941   5.913  0.0235  0.0826  0.8876
   40MOL   C26012818   3.469   7.058   5.989 -0.5207  0.2113 -0.1279
   40MOL   C26112819   3.589   7.094   6.058 -0.1154  0.3466  0.1666
   40MOL  Cl26212820   3.582   7.214   6.177  0.2685 -0.1762 -0.0481
   40MOL   C26312821   3.711   7.029   6.031 -0.4842 -0.3843  0.7813
   40MOL   C26412822   3.711   6.923   5.933 -0.1455 -0.0350  1.2247
   40MOL   C26512823   3.583   6.877   5.881 -0.1830  0.3217  0.0744
   40MOL   C26612824   3.349   6.915   5.695 -1.0619  1.0040  0.6208
   40MOL   H26712825   3.270   6.984   5.889 -2.8408 -2.4941  0.3266
   40MOL   H26812826   3.381   7.109   6.025  0.5128  0.6945  1.7760
   40MOL   H26912827   3.805   7.054   6.080  0.8700 -3.4127 -0.1402
   40MOL   H27012828   3.793   6.858   5.909  0.4331  1.4644 -0.9850
   40MOL   H27112829   3.578   6.787   5.821  2.8627 -0.2696  0.6390
   40MOL   H27212830   3.405   7.007   5.679 -1.0042  0.7669 -0.6290
   40MOL   H27312831   3.411   6.835   5.654 -0.8612  0.8375  1.2521
   40MOL   C27412832   3.214   6.927   5.614 -0.7655  0.1778 -0.0099
   40MOL   C27512833   3.095   6.979   5.693  0.2322  0.1266 -0.0039
   40MOL   C27612834   3.086   7.117   5.732  0.2182  0.5056 -0.5154
   40MOL   C27712835   2.976   7.165   5.808  0.5219 -0.1439  0.2979
   40MOL  Cl27812836   2.989   7.335   5.870 -0.0780 -0.1354 -0.0580
   40MOL   C27912837   2.864   7.078   5.827  0.1988  0.1263 -0.3852
   40MOL   C28012838   2.870   6.947   5.784  0.5040 -0.3457  0.2146
   40MOL   C28112839   2.986   6.899   5.728 -0.5924 -0.3043 -0.4701
   40MOL   C28212840   3.238   7.009   5.486 -1.4053 -0.4075 -0.3144
   40MOL   H28312841   3.188   6.827   5.578 -0.7888  0.2012 -0.0596
   40MOL   H28412842   3.170   7.184   5.720  1.3606 -1.1196 -1.8302
   40MOL   H28512843   2.780   7.114   5.886  2.1405  0.5486  2.2126
   40MOL   H28612844   2.791   6.878   5.809 -2.2911  3.2531  1.7131
   40MOL   H28712845   2.968   6.798   5.694  0.4424  0.1764 -2.4876
   40MOL   H28812846   3.254   7.116   5.499  0.0688 -0.6484  0.0215
   40MOL   H28912847   3.336   6.969   5.460 -1.0252 -0.1309  0.6735
   40MOL   C29012848   3.150   6.998   5.363 -0.0029  0.0156 -0.4815
   40MOL   C29112849   3.148   6.852   5.314 -0.5508  0.6354  0.2312
   40MOL   C29212850   3.255   6.806   5.234 -0.2375 -0.0814 -0.2061
   40MOL   C29312851   3.255   6.676   5.182 -1.0667  0.7066  0.2463
   40MOL  Cl29412852   3.389   6.607   5.093 -0.0317 -0.0512  0.1008
   40MOL   C29512853   3.158   6.584   5.227  0.5564  0.5078 -0.8410
   40MOL   C29612854   3.048   6.632   5.302  0.7931  0.4367  0.1688
   40MOL   C29712855   3.038   6.768   5.339  0.7161 -0.4834  0.0445
   40MOL   C29812856   3.023   7.089   5.366  0.2433  0.1020 -0.3211
   40MOL   H29912857   3.204   7.040   5.277 -0.3093 -1.3250 -1.3400
   40MOL   H30012858   3.340   6.871   5.218  0.1977  0.0677  2.4595
   40MOL   H30112859   3.176   6.478   5.217 -0.6023  0.1065  0.9092
   40MOL   H30212860   2.982   6.557   5.343 -0.6928  2.0983  0.8927
   40MOL   H30312861   2.959   6.806   5.401  0.6824 -0.5879  0.0665
   40MOL   H30412862   2.956   7.042   5.438 -0.1218  0.1158 -0.6442
   40MOL   H30512863   3.039   7.182   5.420 -2.0131  0.3910 -0.0756
   40MOL   C30612864   2.954   7.112   5.225 -0.0555  0.1974 -0.6447
   40MOL   C30712865   2.806   7.137   5.234 -0.2825  0.3919  0.7050
   40MOL   C30812866   2.742   7.197   5.344 -0.1338 -0.0037  0.3457
   40MOL   C30912867   2.601   7.201   5.353 -0.1699 -0.8699 -0.2431
   40MOL  Cl31012868   2.524   7.262   5.491  0.1784 -0.2538 -0.2857
   40MOL   C31112869   2.528   7.168   5.239  0.4709  0.2205  0.2514
   40MOL   C31212870   2.591   7.116   5.119  0.0334 -0.1996  0.2163
   40MOL   C31312871   2.730   7.093   5.121  0.2226 -0.6624 -0.1486
   40MOL   C31412872   3.021   7.216   5.136 -0.7403  0.0381  0.4288
   40MOL   H31512873   2.960   7.026   5.158 -0.7674  1.6399 -2.6059
   40MOL   H31612874   2.801   7.213   5.433 -0.8143 -4.4319  1.7270
   40MOL   H31712875   2.422   7.187   5.242  0.8035  2.6505 -2.0836
   40MOL   H31812876   2.525   7.094   5.037  2.1878 -1.5136 -1.1881
   40MOL   H31912877   2.777   7.058   5.030 -2.0926 -0.8206 -1.3310
   40MOL   H32012878   2.999   7.312   5.182  1.7314  0.4883  0.7432
   40MOL   H32112879   3.130   7.215   5.136 -0.7379  0.1230 -0.3136
   40MOL   H32212880   2.988   7.202   5.033 -0.9862  1.8270  0.2503
   41MOL     C112881   5.467   0.076   4.557 -0.0041 -0.0429  0.2283
   41MOL     C212882   5.494   0.142   4.689 -0.0232  0.4254 -0.0503
   41MOL     C312883   5.409   0.122   4.796 -0.2426 -0.7274 -0.4756
   41MOL     C412884   5.438   0.186   4.921 -0.9219  0.0098  0.1512
   41MOL    Cl512885   5.332   0.172   5.061  0.0765 -0.3526 -0.1192
   41MOL     C612886   5.550   0.273   4.940  0.5267  1.0849 -0.4689
   41MOL     C712887   5.642   0.286   4.830 -0.0169  0.5000  0.5101
   41MOL     C812888   5.603   0.228   4.705  0.2148  0.0373  0.1039
   41MOL     C912889   5.595   0.032   4.481  0.7517 -0.2399  0.4879
   41MOL    H1012890   5.413   0.149   4.497 -0.9814 -1.4754 -0.7021
   41MOL    H1112891   5.317   0.069   4.779 -1.9857  2.3835 -1.0897
   41MOL    H1212892   5.580   0.297   5.041  0.9501 -0.7673 -0.1177
   41MOL    H1312893   5.731   0.347   4.840 -0.0840  0.3589  1.9789
   41MOL    H1412894   5.672   0.240   4.623  1.7836 -1.0552  1.2330
   41MOL    H1512895   5.641   0.122   4.439  0.6231 -0.1838  0.4669
   41MOL    H1612896   5.664   8.419   4.550  1.4820 -1.6171 -1.1840
   41MOL    H1712897   5.401   8.427   4.580  1.6353 -0.7663  2.4782
   41MOL    C1812898   5.563   8.371   4.361  0.3782 -0.1558  0.2481
   41MOL    C1912899   5.452   8.421   4.272  0.3474 -0.5667  0.6713
   41MOL    C2012900   5.461   0.112   4.212  0.6965  0.5095  0.5171
   41MOL    C2112901   5.357   0.160   4.124 -0.1936 -0.3734  0.0992
   41MOL   Cl2212902   5.360   0.318   4.055  0.1498  0.1098 -0.0222
   41MOL    C2312903   5.244   0.082   4.094  0.1977  0.1183  0.0407
   41MOL    C2412904   5.228   8.400   4.163 -0.5560  0.5169  0.7095
   41MOL    C2512905   5.335   8.349   4.245 -0.5317  0.4993  0.1161
   41MOL    C2612906   5.684   8.326   4.274 -0.1877  0.0619 -0.2793
   41MOL    H2712907   5.517   8.291   4.418  0.3178  0.2064  0.7166
   41MOL    H2812908   5.538   0.185   4.230  2.3976 -1.4216  1.1948
   41MOL    H2912909   5.170   0.121   4.026  1.2854 -0.2543 -1.3769
   41MOL    H3012910   5.142   8.335   4.159  0.1428 -0.5010  1.5788
   41MOL    H3112911   5.324   8.255   4.298 -0.9677  1.1150  1.1392
   41MOL    H3212912   5.650   8.281   4.181  0.7263 -2.3892  0.5338
   41MOL    H3312913   5.736   8.418   4.246 -0.5050  0.0480 -0.9053
   41MOL    C3412914   5.781   8.236   4.352 -0.6795  0.0458  0.2791
   41MOL    C3512915   5.718   8.100   4.381  0.7263  0.0797  0.1684
   41MOL    C3612916   5.681   8.068   4.515 -0.1939 -0.1639 -0.8246
   41MOL    C3712917   5.639   7.939   4.549  0.6734 -0.4860 -0.3583
   41MOL   Cl3812918   5.610   7.897   4.717 -0.0512  0.0098 -0.5515
   41MOL    C3912919   5.619   7.841   4.453  0.2412  0.0481 -0.0372
   41MOL    C4012920   5.644   7.876   4.317  0.8079  0.0663  0.2281
   41MOL    C4112921   5.688   8.004   4.280 -0.3346 -0.1824  0.5522
   41MOL    C4212922   5.915   8.221   4.276  0.7868 -0.1859 -0.0361
   41MOL    H4312923   5.811   8.278   4.448 -0.1559 -2.6975  1.3693
   41MOL    H4412924   5.690   8.141   4.595 -0.6885  0.8584 -1.6765
   41MOL    H4512925   5.596   7.738   4.475 -2.4771  0.4543 -0.7829
   41MOL    H4612926   5.629   7.799   4.244 -0.0810  1.7229 -1.3757
   41MOL    H4712927   5.710   8.020   4.176  2.3212  0.2431  1.1389
   41MOL    H4812928   5.901   8.153   4.191 -1.0333 -0.1455  0.2230
   41MOL    H4912929   5.932   8.323   4.243  0.3373  0.6187  2.2069
   41MOL    C5012930   6.036   8.174   4.358  0.2499  0.4256  0.0208
   41MOL    C5112931   6.030   8.018   4.386  0.8142 -0.1309 -0.4039
   41MOL    C5212932   5.991   7.968   4.517  0.8439  0.4433 -0.9287
   41MOL    C5312933   5.986   7.827   4.542 -0.1239  0.4224 -0.8869
   41MOL   Cl5412934   5.939   7.774   4.701 -0.0909 -0.2877  0.1404
   41MOL    C5512935   6.012   7.736   4.434 -0.0866 -0.8661 -0.1554
   41MOL    C5612936   6.042   7.785   4.308  0.3309  0.0018  0.2854
   41MOL    C5712937   6.054   7.928   4.283 -0.0258  0.1084 -0.2039
   41MOL    C5812938   6.175   8.214   4.298 -0.8866 -0.4869 -0.1522
   41MOL    H5912939   6.008   8.215   4.456  0.0317 -3.3883  1.6280
   41MOL    H6012940   5.966   8.044   4.590  3.3013  0.2935  0.1572
   41MOL    H6112941   6.008   7.629   4.446 -2.1371 -0.7591  0.3118
   41MOL    H6212942   6.058   7.713   4.230  1.5241 -1.1328  1.5488
   41MOL    H6312943   6.074   7.962   4.182  1.5483  0.0815  0.0757
   41MOL    H6412944   6.250   8.173   4.366 -0.2955  0.8153  0.0153
   41MOL    H6512945   6.175   8.181   4.194 -0.0751  0.8638 -0.5944
   41MOL    C6612946   6.207   8.367   4.291 -0.1297 -0.2458 -0.0639
   41MOL    C6712947   6.202   0.011   4.422  0.0496 -0.0523  0.5837
   41MOL    C6812948   6.099   0.108   4.442  0.3486  0.0506 -0.3924
   41MOL    C6912949   6.087   0.173   4.567  0.6038 -0.0491 -0.1255
   41MOL   Cl7012950   5.953   0.286   4.599 -0.1928 -0.1790 -0.3891
   41MOL    C7112951   6.171   0.136   4.666 -0.1897  0.4358  0.2120
   41MOL    C7212952   6.284   0.055   4.644  0.5828  0.3575 -0.8181
   41MOL    C7312953   6.295   8.423   4.526 -0.0478  0.3171  1.0193
   41MOL    C7412954   6.336   8.387   4.214  0.5493  0.1895 -1.1822
   41MOL    H7512955   6.133   8.407   4.222 -0.7339 -0.7889  0.2637
   41MOL    H7612956   6.026   0.135   4.366  0.4579  0.4745 -0.3492
   41MOL    H7712957   6.150   0.182   4.762  3.4466 -0.6358  1.6063
   41MOL    H7812958   6.352   0.031   4.724 -1.0757  1.6397  1.0311
   41MOL    H7912959   6.381   8.363   4.501 -1.0342 -0.1590 -1.3786
   41MOL    H8012960   6.416   8.326   4.256  0.6185  0.3320 -1.1052
   41MOL    H8112961   6.315   8.340   4.118 -0.8384 -0.2943 -0.6504
   41MOL    C8212962   6.380   0.100   4.180 -0.0806  0.1510  0.6337
   41MOL    C8312963   6.270   0.177   4.108 -0.1209  0.9645  0.6267
   41MOL    C8412964   6.189   0.270   4.177  0.1411 -0.2428 -0.0989
   41MOL    C8512965   6.090   0.337   4.099  0.3893  0.4674 -0.6175
   41MOL   Cl8612966   5.997   0.455   4.175  0.1584  0.0623  0.2836
   41MOL    C8712967   6.065   0.316   3.963  0.0315  0.7727  0.0943
   41MOL    C8812968   6.144   0.217   3.903  0.3136 -0.5135  0.6165
   41MOL    C8912969   6.237   0.141   3.969 -0.1077 -0.2689 -0.6606
   41MOL    C9012970   6.455   0.183   4.287 -0.0061  0.4775 -0.0471
   41MOL    H9112971   6.455   0.096   4.100 -1.2003  3.6896 -0.7316
   41MOL    H9212972   6.212   0.287   4.281  0.3336  0.6957 -0.2939
   41MOL    H9312973   5.984   0.360   3.906 -0.5378 -0.9700 -0.4909
   41MOL    H9412974   6.140   0.201   3.796  0.4250  0.8331  0.4052
   41MOL    H9512975   6.296   0.066   3.918  1.0763 -0.5513  1.0733
   41MOL    H9612976   6.469   0.279   4.238 -0.7907 -0.0140 -1.2522
   41MOL    H9712977   6.389   0.219   4.367 -1.2046 -0.8478 -0.4123
   41MOL    C9812978   6.581   0.124   4.341 -0.6126  0.0357  0.2716
   41MOL    C9912979   6.679   0.085   4.228  0.4830 -0.7606  0.3611
   41MOL   C10012980   6.759   0.187   4.163 -0.0384 -0.4709 -0.1542
   41MOL   C10112981   6.855   0.152   4.066 -0.2361  0.5524 -0.3030
   41MOL  Cl10212982   6.976   0.264   4.031  0.0982 -0.2275 -0.4966
   41MOL   C10312983   6.860   0.019   4.008  0.4853 -0.4652  0.7370
   41MOL   C10412984   6.776   8.361   4.067  0.5535  0.2564 -0.2250
   41MOL   C10512985   6.689   8.391   4.170 -0.2064 -0.1026  0.0664
   41MOL   C10612986   6.660   0.208   4.445  0.3715 -0.8031  0.0550
   41MOL   H10712987   6.554   0.032   4.392 -1.7281  0.5507  0.6060
   41MOL   H10812988   6.763   0.285   4.208  2.3854 -0.3113 -0.6518
   41MOL   H10912989   6.932   8.435   3.930 -1.0133 -0.3415 -0.7085
   41MOL   H11012990   6.778   8.260   4.029  1.0305  0.3024 -0.3262
   41MOL   H11112991   6.634   8.307   4.208 -1.5121  1.3666  1.4869
   41MOL   H11212992   6.686   0.309   4.412  0.3473  0.4232  3.6542
   41MOL   H11312993   6.593   0.225   4.529 -0.7566 -0.0384 -0.9891
   41MOL   C11412994   6.787   0.136   4.506 -0.2348 -0.1234 -0.4444
   41MOL   C11512995   6.869   0.244   4.577  0.3914 -0.7765  0.1863
   41MOL   C11612996   6.819   0.311   4.690 -0.1208  0.8449 -0.5877
   41MOL   C11712997   6.893   0.416   4.750  1.2754  0.6782  0.3671
   41MOL  Cl11812998   6.820   0.506   4.882  0.1688 -0.0374 -0.0485
   41MOL   C11912999   7.012   0.457   4.693 -0.4080  0.0414 -0.5180
   41MOL   C12013000   7.062   0.383   4.584  0.0709 -0.7032 -0.0936
   41MOL   C12113001   6.991   0.281   4.520 -0.9439  0.0972 -0.4521
   41MOL   C12213002   6.753   0.002   4.591 -0.4335 -0.0719  0.6960
   41MOL   H12313003   6.864   0.109   4.434 -0.1582 -2.0600  0.3145
   41MOL   H12413004   6.730   0.276   4.740  0.1743  0.8356 -0.0634
   41MOL   H12513005   7.067   0.537   4.739 -2.7635  2.0902 -1.1908
   41MOL   H12613006   7.160   0.416   4.554 -0.9075 -0.0081 -2.5846
   41MOL   H12713007   7.037   0.239   4.432 -0.2632 -0.7722  0.3105
   41MOL   H12813008   6.805   0.012   4.686 -0.9085  0.8905  0.8587
   41MOL   H12913009   6.652   0.017   4.628 -0.7340 -2.1276  0.7758
   41MOL   C13013010   6.774   8.295   4.527 -0.1201 -0.3225  0.4070
   41MOL   C13113011   6.922   8.261   4.514 -0.6032 -0.4040  0.0165
   41MOL   C13213012   6.995   8.188   4.616 -0.4441 -0.5340  0.3452
   41MOL   C13313013   7.129   8.161   4.603 -0.5029 -0.4787  0.8378
   41MOL  Cl13413014   7.226   8.093   4.720  0.1979  0.1005  0.2035
   41MOL   C13513015   7.188   8.178   4.472  0.3189  0.0899 -0.8257
   41MOL   C13613016   7.110   8.242   4.370  0.0157 -0.4557  0.0109
   41MOL   C13713017   6.983   8.300   4.395  0.3077 -0.4216 -0.4771
   41MOL   C13813018   6.680   8.190   4.591 -0.2248 -0.3918  0.2468
   41MOL   H13913019   6.728   8.292   4.429 -0.6149  0.3681  0.6178
   41MOL   H14013020   6.950   8.151   4.707  0.4466 -0.3463  0.8647
   41MOL   H14113021   7.285   8.131   4.456  0.3802 -0.4251  0.9688
   41MOL   H14213022   7.154   8.254   4.272  0.1966  0.5733  0.2075
   41MOL   H14313023   6.931   8.359   4.322  1.6546  0.9403 -0.3811
   41MOL   H14413024   6.713   8.171   4.693 -1.1481 -0.5390  0.5255
   41MOL   H14513025   6.583   8.240   4.597 -0.0912 -0.2395  1.1878
   41MOL   C14613026   6.673   8.059   4.513 -0.1578 -0.3554 -0.4235
   41MOL   C14713027   6.592   7.954   4.592 -0.3579 -0.4981  0.1612
   41MOL   C14813028   6.648   7.865   4.681  0.5958 -0.3694  0.4034
   41MOL   C14913029   6.569   7.792   4.772 -0.5374 -0.7178  0.6471
   41MOL  Cl15013030   6.653   7.692   4.886 -0.3924  0.2889 -0.1413
   41MOL   C15113031   6.426   7.788   4.761 -0.0851 -0.7102  0.1498
   41MOL   C15213032   6.367   7.876   4.670  0.2144 -0.3740 -0.0487
   41MOL   C15313033   6.450   7.963   4.586  0.2044  0.1814  0.1036
   41MOL   C15413034   6.635   8.063   4.361  0.3914 -1.0320 -0.3250
   41MOL   H15513035   6.773   8.016   4.514 -0.0520 -0.1111  1.6525
   41MOL   H15613036   6.755   7.868   4.688  0.7030 -2.2748 -0.2289
   41MOL   H15713037   6.369   7.727   4.829 -0.3626 -0.9074 -0.2607
   41MOL   H15813038   6.259   7.876   4.678  0.1757 -1.2874 -0.5677
   41MOL   H15913039   6.398   8.033   4.522  0.2622  0.4402  0.3353
   41MOL   H16013040   6.550   8.130   4.346  1.3312 -0.1487 -1.8311
   41MOL   H16113041   6.713   8.120   4.311 -1.0652  0.0141 -1.4761
   41MOL   C16213042   6.596   7.928   4.282 -0.1040  0.8849  0.0038
   41MOL   C16313043   6.537   7.963   4.149  0.2237  0.4170 -0.1863
   41MOL   C16413044   6.397   7.934   4.125 -0.6017  0.1869  0.2205
   41MOL   C16513045   6.346   7.955   3.992  0.7483 -0.6761  0.7548
   41MOL  Cl16613046   6.190   7.906   3.953  0.4035  0.0361 -0.2099
   41MOL   C16713047   6.428   8.018   3.893  0.2266  0.1204  0.4844
   41MOL   C16813048   6.563   8.059   3.926 -0.5664 -0.1108  0.0893
   41MOL   C16913049   6.617   8.026   4.053 -0.0863  0.3036 -0.1432
   41MOL   C17013050   6.713   7.831   4.267  0.0044  0.6732 -0.4206
   41MOL   H17113051   6.515   7.883   4.338 -0.3794  0.6998 -0.5421
   41MOL   H17213052   6.342   7.887   4.205  0.5233  0.5924  1.2554
   41MOL   H17313053   6.381   8.029   3.796  0.0747 -0.6903  0.4624
   41MOL   H17413054   6.631   8.106   3.855 -0.9305  0.4931  0.1353
   41MOL   H17513055   6.717   8.059   4.076  0.6091 -1.2623 -0.8594
   41MOL   H17613056   6.720   7.804   4.162  1.8167  0.6363 -0.3022
   41MOL   H17713057   6.807   7.882   4.290 -0.8264  2.6533 -1.2701
   41MOL   C17813058   6.702   7.701   4.350 -0.0237  0.3613  0.2716
   41MOL   C17913059   6.566   7.643   4.326  0.3598 -0.7445 -0.2542
   41MOL   C18013060   6.509   7.622   4.197  0.1439 -0.3926 -0.0803
   41MOL   C18113061   6.380   7.572   4.176  0.0324  0.0471 -0.7902
   41MOL  Cl18213062   6.304   7.567   4.031  0.0199  0.1033 -0.1477
   41MOL   C18313063   6.299   7.555   4.292  0.5433 -0.1054 -0.4154
   41MOL   C18413064   6.352   7.570   4.422  0.3196  0.0228  0.7377
   41MOL   C18513065   6.484   7.615   4.437 -0.6279 -0.3190  0.0312
   41MOL   C18613066   6.817   7.606   4.317 -0.2369  0.2032 -0.0888
   41MOL   H18713067   6.715   7.719   4.457  0.6214  1.7211 -0.0161
   41MOL   H18813068   6.570   7.648   4.111 -1.1891 -0.4973 -1.0658
   41MOL   H18913069   6.202   7.506   4.292  2.0098 -3.1259 -0.8070
   41MOL   H19013070   6.298   7.548   4.513  1.3591 -0.2059  1.3153
   41MOL   H19113071   6.528   7.634   4.534 -0.7424 -1.0875  0.2321
   41MOL   H19213072   6.789   7.509   4.357 -1.2286  1.3036  1.9936
   41MOL   H19313073   6.825   7.568   4.215 -1.2155 -3.0394  0.9873
   41MOL   C19413074   6.951   7.654   4.381 -0.1778 -0.5162 -0.0472
   41MOL   C19513075   6.967   7.623   4.529 -0.4181 -0.6911  1.2963
   41MOL   C19613076   7.018   7.726   4.615 -0.2485  0.4564  0.6653
   41MOL   C19713077   7.030   7.706   4.753  0.3026 -0.0383  1.1483
   41MOL  Cl19813078   7.091   7.830   4.858 -0.0727  0.1061 -0.4054
   41MOL   C19913079   6.981   7.587   4.802 -0.2566 -0.4407  0.3115
   41MOL   C20013080   6.941   7.483   4.722  0.6481 -0.0605 -0.0391
   41MOL   C20113081   6.927   7.504   4.584  0.4465 -0.2691  0.6938
   41MOL   C20213082   7.070   7.592   4.301  0.6592  0.4468  0.0845
   41MOL   H20313083   6.969   7.760   4.366  0.8064 -0.9451 -2.0753
   41MOL   H20413084   7.055   7.816   4.568  1.6460 -2.1981 -3.2526
   41MOL   H20513085   6.986   7.568   4.908  1.4351  3.3998  0.9868
   41MOL   H20613086   6.906   7.392   4.770 -0.2111 -0.6293 -1.7041
   41MOL   H20713087   6.889   7.423   4.524  1.4913  0.2107 -0.6429
   41MOL   H20813088   7.080   7.485   4.318  1.9311  0.0671 -2.6616
   41MOL   H20913089   7.041   7.605   4.196  0.5299 -1.7341 -0.1706
   41MOL   C21013090   7.216   7.645   4.320  0.4219  0.0756  0.1829
   41MOL   C21113091   7.276   7.605   4.453 -0.3777  0.1422  0.2735
   41MOL   C21213092   7.334   7.702   4.540 -0.1186  0.7519 -0.0932
   41MOL   C21313093   7.382   7.645   4.665  0.0534 -0.1726  0.0601
   41MOL  Cl21413094   7.444   7.743   4.791 -0.0086 -0.1984 -0.0366
   41MOL   C21513095   7.374   7.510   4.691  0.1503 -0.7422 -0.1885
   41MOL   C21613096   7.333   7.416   4.596  1.1574 -0.3102  0.1624
   41MOL   C21713097   7.282   7.466   4.475 -0.1752 -0.2258 -0.5949
   41MOL   C21813098   7.301   7.612   4.201  0.0548  0.4352  0.2363
   41MOL   H21913099   7.213   7.754   4.316 -1.1690  0.0387  0.1855
   41MOL   H22013100   7.344   7.808   4.522  0.6127  0.7970  0.5464
   41MOL   H22113101   7.405   7.492   4.793  3.3949 -2.2035 -1.3728
   41MOL   H22213102   7.329   7.311   4.624 -0.9153  0.1699  1.7966
   41MOL   H22313103   7.234   7.402   4.403  1.2356 -0.9238 -0.9455
   41MOL   H22413104   7.396   7.660   4.222  0.7879 -1.3024  1.0416
   41MOL   H22513105   7.319   7.505   4.187 -0.0863  0.3124  0.9915
   41MOL   C22613106   7.269   7.679   4.060 -0.1109 -0.7282 -0.0994
   41MOL   C22713107   7.240   7.829   4.060  0.5003  0.6205  0.2214
   41MOL   C22813108   7.345   7.921   4.092  0.4905  0.1547  0.2333
   41MOL   C22913109   7.321   8.061   4.079  0.3532  0.2283 -0.0659
   41MOL  Cl23013110   7.456   8.165   4.106 -0.2394 -0.2060 -0.4095
   41MOL   C23113111   7.191   8.105   4.049 -0.1363 -0.8060  0.7084
   41MOL   C23213112   7.086   8.015   4.038  0.2207  0.1227  0.0380
   41MOL   C23313113   7.113   7.879   4.024 -0.1820 -0.0211 -0.0277
   41MOL   C23413114   7.385   7.645   3.956 -0.0904 -0.6518  0.1658
   41MOL   H23513115   7.187   7.627   4.010 -0.5391  0.6580 -0.8681
   41MOL   H23613116   7.441   7.886   4.126  0.7310 -0.5106 -1.0640
   41MOL   H23713117   7.174   8.211   4.033 -0.2022 -0.8920  0.1868
   41MOL   H23813118   6.984   8.041   4.015  0.6209  1.3787 -0.3959
   41MOL   H23913119   7.036   7.808   3.995 -1.0519  1.3560 -1.1872
   41MOL   H24013120   7.467   7.700   4.000  2.6256 -2.3442 -2.6071
   41MOL   H24113121   7.410   7.539   3.957  0.5586 -0.5000 -0.0406
   41MOL   C24213122   7.377   7.687   3.809  0.4926 -0.1268 -0.1511
   41MOL   C24313123   7.516   7.743   3.770  0.3823 -0.1440  0.1796
   41MOL   C24413124   7.517   7.867   3.702  0.4783  0.0042  0.1643
   41MOL   C24513125   7.639   7.920   3.665 -0.6668 -1.0707  0.2573
   41MOL  Cl24613126   7.630   8.068   3.575 -0.1722  0.2317  0.0987
   41MOL   C24713127   7.763   7.863   3.687  0.9371 -0.2065  0.8605
   41MOL   C24813128   7.758   7.735   3.743 -0.2889  0.0344 -0.1900
   41MOL   C24913129   7.636   7.673   3.790  0.1033  0.0565 -0.2868
   41MOL   C25013130   7.340   7.570   3.714 -0.0486 -0.4398 -0.3873
   41MOL   H25113131   7.313   7.774   3.796 -0.1881 -0.4398  1.0570
   41MOL   H25213132   7.424   7.914   3.674  0.7494 -1.2858 -3.1597
   41MOL   H25313133   7.855   7.912   3.659  0.5891 -0.7668 -1.3318
   41MOL   H25413134   7.855   7.687   3.745  0.0881  0.8441  0.7647
   41MOL   H25513135   7.626   7.576   3.836 -2.1207  0.3269 -0.1151
   41MOL   H25613136   7.379   7.602   3.618 -0.6506  2.4653  0.2953
   41MOL   H25713137   7.400   7.486   3.747  0.4844  0.2392  0.3916
   41MOL   C25813138   7.187   7.537   3.706  0.3032  0.3206  0.1135
   41MOL   C25913139   7.093   7.661   3.695  0.3143  0.3507 -0.3337
   41MOL   C26013140   6.964   7.657   3.759  1.0786 -0.5487 -0.2609
   41MOL   C26113141   6.877   7.770   3.753 -1.0441  1.5512 -0.1510
   41MOL  Cl26213142   6.743   7.783   3.852  0.0378 -0.1872  0.2114
   41MOL   C26313143   6.910   7.876   3.671 -0.4155 -0.4989 -0.6609
   41MOL   C26413144   7.030   7.880   3.599 -0.5950 -0.4073  0.0589
   41MOL   C26513145   7.119   7.777   3.616  0.0021 -0.3437  0.2647
   41MOL   C26613146   7.163   7.419   3.610  0.5591  0.2178  0.4971
   41MOL   H26713147   7.165   7.511   3.810 -0.5755  0.2432 -0.0849
   41MOL   H26813148   6.933   7.571   3.817 -0.9517  0.7730  0.7113
   41MOL   H26913149   6.839   7.957   3.657  0.9755  1.1167  1.4267
   41MOL   H27013150   7.058   7.961   3.533  1.4938  0.5126  2.0150
   41MOL   H27113151   7.213   7.781   3.564 -0.7844  2.9090 -1.0001
   41MOL   H27213152   7.060   7.383   3.610  0.7453 -0.4505 -2.2137
   41MOL   H27313153   7.189   7.449   3.508  1.3427  0.4041  0.7523
   41MOL   C27413154   7.236   7.287   3.643  0.7017  0.1867  0.8723
   41MOL   C27513155   7.223   7.249   3.793  0.0037  0.8705 -0.0421
   41MOL   C27613156   7.101   7.260   3.863  0.2162 -0.0757  0.1757
   41MOL   C27713157   7.088   7.242   4.001 -0.1306 -0.5632  0.0214
   41MOL  Cl27813158   6.932   7.272   4.078 -0.0956 -0.2147 -0.0337
   41MOL   C27913159   7.204   7.198   4.073 -0.5403  0.4350  0.0920
   41MOL   C28013160   7.324   7.178   4.000 -0.6954  0.7590 -0.6107
   41MOL   C28113161   7.336   7.199   3.861  0.4777  0.4632 -0.0293
   41MOL   C28213162   7.190   7.169   3.552  0.3470  0.2051  0.3720
   41MOL   H28313163   7.340   7.311   3.618  0.0940  2.1258  0.1217
   41MOL   H28413164   7.011   7.289   3.811 -0.1644 -1.3074  0.1514
   41MOL   H28513165   7.200   7.184   4.181  0.3110  1.4607  0.2576
   41MOL   H28613166   7.412   7.143   4.053 -2.0672 -0.4691  0.8768
   41MOL   H28713167   7.434   7.181   3.820 -0.1406 -1.4813 -0.7382
   41MOL   H28813168   7.232   7.071   3.575  1.5647  1.0025  1.6264
   41MOL   H28913169   7.082   7.160   3.565 -0.2099  1.6820 -2.7178
   41MOL   C29013170   7.207   7.182   3.406 -0.5135  0.2999  0.0569
   41MOL   C29113171   7.353   7.214   3.356  0.6568 -0.3949 -0.8689
   41MOL   C29213172   7.465   7.166   3.428  0.5025  0.1818  0.7887
   41MOL   C29313173   7.596   7.188   3.383  0.2345 -0.2407 -0.7062
   41MOL  Cl29413174   7.736   7.158   3.478  0.0376  0.2344 -0.3528
   41MOL   C29513175   7.615   7.256   3.264  0.0782 -0.4951 -0.9552
   41MOL   C29613176   7.507   7.307   3.187 -0.1086  0.7881 -0.1586
   41MOL   C29713177   7.378   7.281   3.232 -0.2790  0.2302 -0.2247
   41MOL   C29813178   7.168   7.051   3.344 -0.2593  0.8284  0.6605
   41MOL   H29913179   7.136   7.257   3.371 -0.3437 -0.4145 -1.8635
   41MOL   H30013180   7.452   7.111   3.520  0.8691  0.2652  0.8922
   41MOL   H30113181   7.717   7.266   3.230  0.7391 -1.2596  0.7591
   41MOL   H30213182   7.523   7.369   3.100 -0.1094  1.3578  0.2492
   41MOL   H30313183   7.298   7.310   3.165  0.2942  2.1087 -0.1298
   41MOL   H30413184   7.253   6.984   3.360  0.6822  1.7378 -0.4519
   41MOL   H30513185   7.077   7.010   3.386  0.4539  1.6169  3.0204
   41MOL   C30613186   7.142   7.046   3.192  0.0484  0.5603  0.4031
   41MOL   C30713187   7.150   6.908   3.119 -0.0475  0.0736 -0.0103
   41MOL   C30813188   7.090   6.792   3.169  0.2673 -0.2465 -0.8577
   41MOL   C30913189   7.097   6.673   3.098 -0.2678 -0.3120  0.4380
   41MOL  Cl31013190   7.040   6.524   3.164  0.0239 -0.3292  0.1939
   41MOL   C31113191   7.159   6.666   2.971 -0.2698 -0.2549 -0.3402
   41MOL   C31213192   7.207   6.789   2.915 -0.2898  0.4403 -0.2075
   41MOL   C31313193   7.214   6.903   2.993  0.0797 -0.9949  0.2352
   41MOL   C31413194   7.008   7.110   3.169  0.7545  0.2536  0.4792
   41MOL   H31513195   7.208   7.122   3.148  0.2931 -0.3354 -0.8114
   41MOL   H31613196   7.042   6.792   3.266 -0.1658  0.7038 -1.0664
   41MOL   H31713197   7.169   6.570   2.924 -1.0412 -0.0647 -0.9022
   41MOL   H31813198   7.258   6.795   2.820 -1.0352  1.0250 -0.5781
   41MOL   H31913199   7.264   6.990   2.952 -0.0452 -1.6772 -1.4112
   41MOL   H32013200   6.933   7.037   3.196  0.8185 -0.4890 -1.2926
   41MOL   H32113201   6.986   7.187   3.243  1.5242  0.7044  0.2550
   41MOL   H32213202   6.990   7.150   3.069  1.1899  2.1111  1.1177
   42MOL     C113203   6.800   6.446   3.878  0.0912 -0.6296 -0.3720
   42MOL     C213204   6.683   6.515   3.813  0.4584  0.7645 -0.4038
   42MOL     C313205   6.547   6.487   3.844  0.9777  0.6198  0.1250
   42MOL     C413206   6.439   6.565   3.792  0.5228 -1.3164 -0.3466
   42MOL    Cl513207   6.271   6.537   3.836  0.4622 -0.2789  0.0138
   42MOL     C613208   6.468   6.673   3.706  0.1329 -0.8821  0.4774
   42MOL     C713209   6.604   6.713   3.688 -0.0566 -0.2053 -0.4698
   42MOL     C813210   6.709   6.626   3.738 -0.0078  0.1304 -0.6792
   42MOL     C913211   6.782   6.310   3.944  0.7030 -0.1740  0.1891
   42MOL    H1013212   6.821   6.520   3.955 -1.1520 -1.8572  1.1904
   42MOL    H1113213   6.506   6.405   3.901 -1.4252  1.1164 -0.8379
   42MOL    H1213214   6.391   6.737   3.664  0.6717  0.7112  1.8510
   42MOL    H1313215   6.618   6.801   3.628  2.9615 -1.4450 -1.6984
   42MOL    H1413216   6.811   6.661   3.732 -0.3970  1.4143  0.0534
   42MOL    H1513217   6.690   6.317   4.002 -0.8470 -1.2864 -2.0441
   42MOL    H1613218   6.752   6.234   3.871 -0.5721 -0.1530  0.6702
   42MOL    H1713219   6.893   6.429   3.823 -0.4707 -1.1148 -1.1727
   42MOL    C1813220   6.903   6.260   4.026  0.6467 -0.3806 -0.2331
   42MOL    C1913221   6.851   6.182   4.153  0.5070 -1.1370  0.7034
   42MOL    C2013222   6.729   6.112   4.159 -0.1066 -0.4423  0.5767
   42MOL    C2113223   6.678   6.061   4.282  0.0494 -0.4496 -1.2533
   42MOL   Cl2213224   6.518   5.993   4.300 -0.1292 -0.3339  0.0763
   42MOL    C2313225   6.760   6.066   4.394 -0.3391  0.1539 -0.2972
   42MOL    C2413226   6.878   6.136   4.394 -0.3125  0.4104 -0.1035
   42MOL    C2513227   6.922   6.196   4.268  0.0310  0.7267 -0.8818
   42MOL    C2613228   7.007   6.170   3.948 -0.2501 -0.5629 -0.3347
   42MOL    H2713229   6.954   6.350   4.058 -1.1998  0.7008 -0.2779
   42MOL    H2813230   6.659   6.104   4.077  0.5962  0.0343 -0.0654
   42MOL    H2913231   6.724   6.023   4.487 -0.7639 -0.3970 -0.7102
   42MOL    H3013232   6.936   6.143   4.486 -0.2613  1.3131 -0.1975
   42MOL    H3113233   7.019   6.242   4.263 -0.4446  2.0688  1.5096
   42MOL    H3213234   6.959   6.072   3.951 -0.5892 -0.3828  0.0084
   42MOL    H3313235   7.009   6.204   3.844  2.2793  3.1494  0.8396
   42MOL    C3413236   7.154   6.150   4.002 -0.0224 -0.6362  0.1086
   42MOL    C3513237   7.231   6.030   3.942  0.6218  0.0587 -0.2222
   42MOL    C3613238   7.252   6.017   3.802 -0.4567 -0.3537  1.1486
   42MOL    C3713239   7.339   5.913   3.754 -0.2797 -0.1687  0.3731
   42MOL   Cl3813240   7.368   5.900   3.581  0.4007 -0.3760 -0.0642
   42MOL    C3913241   7.411   5.839   3.843 -0.0808 -0.5816 -0.2458
   42MOL    C4013242   7.391   5.853   3.979 -0.0449  0.4103  0.7966
   42MOL    C4113243   7.300   5.947   4.030  0.1555 -0.3857 -0.1574
   42MOL    C4213244   7.236   6.280   3.979  0.5047 -0.5131  0.4324
   42MOL    H4313245   7.144   6.137   4.110  3.4963 -0.2041  0.5485
   42MOL    H4413246   7.197   6.075   3.728  0.2254 -0.4114  0.5908
   42MOL    H4513247   7.494   5.781   3.807  0.6011  1.1032 -1.4646
   42MOL    H4613248   7.447   5.796   4.052 -0.1908  0.0706  0.6432
   42MOL    H4713249   7.291   5.946   4.137  0.9419 -1.0779 -0.0949
   42MOL    H4813250   7.326   6.255   3.922  0.2598  0.3280 -0.3340
   42MOL    H4913251   7.179   6.338   3.906  1.0322 -1.1664 -0.5114
   42MOL    C5013252   7.282   6.358   4.106  0.0704 -0.2269  0.2021
   42MOL    C5113253   7.350   6.269   4.209  0.5479  0.2605 -0.1875
   42MOL    C5213254   7.459   6.189   4.171  0.6787 -0.2522 -0.2826
   42MOL    C5313255   7.504   6.089   4.251 -0.2228 -0.1508 -0.9743
   42MOL   Cl5413256   7.623   5.978   4.193  0.0924  0.1276 -0.3412
   42MOL    C5513257   7.464   6.077   4.382 -0.4788  0.0898  0.5534
   42MOL    C5613258   7.351   6.158   4.423  1.1915 -0.0957  0.8914
   42MOL    C5713259   7.302   6.263   4.339 -0.3037  0.6720 -0.9263
   42MOL    C5813260   7.372   6.485   4.078  0.3500 -0.5609  0.7079
   42MOL    H5913261   7.193   6.395   4.157  1.1237  1.4338  0.8982
   42MOL    H6013262   7.503   6.196   4.073 -1.6480  2.8634 -1.1623
   42MOL    H6113263   7.502   5.993   4.439 -3.4566 -1.1806  0.7729
   42MOL    H6213264   7.315   6.148   4.525  0.9386 -2.4258  0.6082
   42MOL    H6313265   7.217   6.322   4.371  0.5282  1.0848  0.5804
   42MOL    H6413266   7.416   6.525   4.169  2.9302  0.8485 -1.1119
   42MOL    H6513267   7.461   6.451   4.027  1.0973 -0.5317  1.9626
   42MOL    C6613268   7.307   6.599   3.998 -0.1272 -0.8789 -0.6209
   42MOL    C6713269   7.193   6.666   4.076 -0.8688  0.7639  0.1587
   42MOL    C6813270   7.080   6.702   4.008 -0.2173  0.0478  0.5038
   42MOL    C6913271   6.982   6.781   4.066 -0.4361  0.1511  1.0214
   42MOL   Cl7013272   6.866   6.853   3.967 -0.4162  0.4298 -0.0823
   42MOL    C7113273   6.992   6.811   4.204 -0.8018  0.0469  0.2068
   42MOL    C7213274   7.104   6.776   4.278  0.2883 -0.0671  0.3681
   42MOL    C7313275   7.206   6.698   4.213  0.1098 -0.3565 -0.0460
   42MOL    C7413276   7.412   6.704   3.927 -0.0498  0.4372  0.5096
   42MOL    H7513277   7.252   6.554   3.915 -3.0195  0.9360  0.2429
   42MOL    H7613278   7.061   6.687   3.903  3.1034 -1.8741  0.0976
   42MOL    H7713279   6.911   6.875   4.238 -1.0450  0.1238 -0.5083
   42MOL    H7813280   7.109   6.799   4.384 -0.6126 -0.9744  0.6166
   42MOL    H7913281   7.289   6.667   4.275  1.3978  1.6338 -0.7433
   42MOL    H8013282   7.380   6.808   3.934 -0.3166  0.4658 -1.0500
   42MOL    H8113283   7.496   6.700   3.997 -0.5474  2.0951  1.2040
   42MOL    C8213284   7.455   6.664   3.783  0.7255  0.7255 -0.4824
   42MOL    C8313285   7.328   6.648   3.695  0.2879 -1.2424  0.8159
   42MOL    C8413286   7.235   6.757   3.686 -0.3205  0.0604 -0.9054
   42MOL    C8513287   7.116   6.746   3.610 -0.5096 -0.6945 -0.0061
   42MOL   Cl8613288   6.998   6.867   3.627  0.0061  0.2307  0.1647
   42MOL    C8713289   7.091   6.634   3.529 -0.8440  0.2652  0.6680
   42MOL    C8813290   7.185   6.529   3.533  0.0136  0.0513  0.2643
   42MOL    C8913291   7.297   6.532   3.623 -0.7546 -0.1148 -0.2250
   42MOL    C9013292   7.553   6.761   3.723 -0.5791  0.6352 -0.1849
   42MOL    H9113293   7.508   6.569   3.789 -1.5066 -0.3555  4.2533
   42MOL    H9213294   7.260   6.846   3.742  0.5256 -1.0091  0.4428
   42MOL    H9313295   7.010   6.638   3.457  0.6818  1.1970 -1.0723
   42MOL    H9413296   7.151   6.439   3.485 -0.1434 -0.3310  1.0938
   42MOL    H9513297   7.366   6.449   3.633 -0.1316  0.3749 -0.4217
   42MOL    H9613298   7.504   6.846   3.676  0.8400  0.4931 -1.9402
   42MOL    H9713299   7.606   6.796   3.812  3.3636 -2.8257 -1.0606
   42MOL    C9813300   7.655   6.704   3.626  0.5814 -0.1387  0.7462
   42MOL    C9913301   7.586   6.702   3.485 -0.0237  0.5663 -0.2098
   42MOL   C10013302   7.537   6.583   3.432 -0.0411  0.2435  0.9506
   42MOL   C10113303   7.480   6.594   3.302 -0.3161 -0.5963  0.8208
   42MOL  Cl10213304   7.422   6.461   3.218 -0.1383  0.3033  0.1761
   42MOL   C10313305   7.466   6.715   3.228 -0.3304 -0.5976 -0.3547
   42MOL   C10413306   7.517   6.830   3.291  0.2007 -0.2092  0.6389
   42MOL   C10513307   7.570   6.830   3.420 -0.2407  0.4137 -0.5261
   42MOL   C10613308   7.783   6.782   3.627 -0.3394 -0.4997 -0.1840
   42MOL   H10713309   7.676   6.598   3.638  0.4695 -0.2247  0.2182
   42MOL   H10813310   7.555   6.488   3.481  0.8173 -1.2462 -2.1178
   42MOL   H10913311   7.398   6.725   3.145 -1.5590 -1.7757  0.4883
   42MOL   H11013312   7.491   6.925   3.246 -0.1704 -1.6847 -2.3758
   42MOL   H11113313   7.604   6.922   3.465 -0.8011  1.2684 -1.8255
   42MOL   H11213314   7.851   6.767   3.543  1.3672  0.2829  1.0149
   42MOL   H11313315   7.771   6.890   3.614  1.2370 -0.4391 -1.2473
   42MOL   C11413316   7.864   6.775   3.762  0.5321  0.8452 -0.2205
   42MOL   C11513317   7.871   6.637   3.823  0.2663  0.0357 -0.4643
   42MOL   C11613318   7.804   6.607   3.944 -0.3451  0.5219 -0.1376
   42MOL   C11713319   7.811   6.473   3.999  0.3551 -0.9346 -0.3067
   42MOL  Cl11813320   7.726   6.428   4.143 -0.0561  0.0329  0.1760
   42MOL   C11913321   7.886   6.375   3.935  0.3376  0.5679  0.2657
   42MOL   C12013322   7.956   6.406   3.815 -0.3688 -0.5185 -0.5005
   42MOL   C12113323   7.946   6.536   3.765  0.0821  0.4863  0.8573
   42MOL   C12213324   8.003   6.835   3.753  0.0275 -0.4239  0.1691
   42MOL   H12313325   7.812   6.832   3.840  0.9789  3.8761 -2.0434
   42MOL   H12413326   7.735   6.674   3.992 -0.6834 -0.4042  0.6982
   42MOL   H12513327   7.881   6.271   3.962  2.0163  0.4937  0.3829
   42MOL   H12613328   8.009   6.319   3.779  0.7193  0.1283 -0.4833
   42MOL   H12713329   8.004   6.554   3.675 -1.1172  0.1179 -0.0032
   42MOL   H12813330   8.056   6.825   3.848 -0.0467 -0.7391  0.1782
   42MOL   H12913331   8.062   6.774   3.684 -2.9171 -0.0675 -2.7861
   42MOL   C13013332   8.018   6.984   3.728  0.5233 -0.2401  0.3657
   42MOL   C13113333   7.959   7.059   3.847 -0.2824  0.1494 -0.2773
   42MOL   C13213334   7.844   7.137   3.835 -0.3607 -0.3656  0.0290
   42MOL   C13313335   7.790   7.217   3.939  0.6749 -0.5604 -0.1049
   42MOL  Cl13413336   7.652   7.311   3.909  0.3763  0.4747  0.1216
   42MOL   C13513337   7.862   7.218   4.059 -0.2309 -0.3229 -0.3910
   42MOL   C13613338   7.977   7.140   4.077  0.6817  0.8929  0.0484
   42MOL   C13713339   8.026   7.057   3.973  0.5277  1.0683  0.2132
   42MOL   C13813340   8.167   7.020   3.708  0.0831  0.1916 -0.4462
   42MOL   H13913341   7.965   7.011   3.637  0.9363  0.4956  0.3419
   42MOL   H14013342   7.793   7.142   3.740 -1.7373  1.5268  0.8298
   42MOL   H14113343   7.828   7.275   4.145 -1.2818 -2.2682  0.5085
   42MOL   H14213344   8.030   7.133   4.171  3.8909  1.9200 -1.5765
   42MOL   H14313345   8.112   6.996   3.996  0.7830  1.2178 -0.3490
   42MOL   H14413346   8.188   7.124   3.732  1.2980  0.2154 -1.5565
   42MOL   H14513347   8.222   6.953   3.774  0.9778 -0.2694 -1.6306
   42MOL   C14613348   8.221   6.996   3.567 -0.4081 -0.5571 -0.2376
   42MOL   C14713349   8.138   7.067   3.458  0.0674  0.8689 -0.8157
   42MOL   C14813350   8.070   6.996   3.357 -0.1288  0.0193  0.4592
   42MOL   C14913351   7.997   7.062   3.259 -0.3631 -0.5164  0.5234
   42MOL  Cl15013352   7.903   6.967   3.151  0.2575 -0.2555  0.3757
   42MOL   C15113353   7.995   7.201   3.253 -0.2610 -0.2150 -0.0035
   42MOL   C15213354   8.073   7.276   3.344  0.1193 -0.0642  0.4339
   42MOL   C15313355   8.134   7.209   3.455  0.8736  0.3812  0.8269
   42MOL   C15413356   8.377   7.018   3.546  0.1418  0.5086  0.1920
   42MOL   H15513357   8.192   6.894   3.541  1.6354 -0.5422 -2.8000
   42MOL   H15613358   8.064   6.889   3.351 -2.7453  0.1921 -1.2443
   42MOL   H15713359   7.953   7.256   3.170  0.6553  0.1958 -0.2051
   42MOL   H15813360   8.087   7.383   3.339  0.3089 -0.0551  1.2431
   42MOL   H15913361   8.185   7.275   3.523 -0.0791  2.4858 -0.4703
   42MOL   H16013362   8.395   7.014   3.438 -2.0377 -0.9416 -0.1533
   42MOL   H16113363   8.408   7.112   3.591  0.4843  0.5292 -0.0829
   42MOL   C16213364   0.022   6.903   3.606 -0.0857 -0.1722 -0.5479
   42MOL   C16313365   8.422   6.763   3.562 -0.4824  0.1401 -0.0026
   42MOL   C16413366   8.357   6.677   3.658 -0.3283 -0.3864  0.1580
   42MOL   C16513367   8.329   6.541   3.621 -0.0519 -0.3499 -0.1125
   42MOL  Cl16613368   8.277   6.422   3.743 -0.5797  0.2228 -0.3248
   42MOL   C16713369   8.348   6.508   3.486  0.3828  0.0406  0.3751
   42MOL   C16813370   8.391   6.596   3.387  1.1362  0.2818 -0.3433
   42MOL   C16913371   0.003   6.720   3.426  0.3104 -0.1961 -0.2741
   42MOL   C17013372   0.168   6.932   3.594  0.0614  0.5882 -0.1230
   42MOL   H17113373   0.004   6.909   3.714 -1.0391 -1.6232 -0.6131
   42MOL   H17213374   8.336   6.703   3.761 -0.7675  0.9584 -0.2595
   42MOL   H17313375   8.329   6.407   3.453  0.0779  0.0843  0.4109
   42MOL   H17413376   8.396   6.568   3.283 -0.8443 -1.4146 -0.0088
   42MOL   H17513377   0.039   6.791   3.354  2.0040 -1.6132 -0.8505
   42MOL   H17613378   0.182   6.952   3.488  1.1274 -0.0973 -0.1200
   42MOL   H17713379   0.199   7.024   3.643 -0.4892  1.5248 -1.4870
   42MOL   C17813380   0.267   6.815   3.632  0.6863 -0.5996  0.7149
   42MOL   C17913381   0.406   6.834   3.576  0.2126  0.7879 -0.1365
   42MOL   C18013382   0.455   6.961   3.540  1.1969  0.6251  0.5657
   42MOL   C18113383   0.585   6.978   3.488 -0.7072  0.2057  0.2191
   42MOL  Cl18213384   0.636   7.135   3.437 -0.4699 -0.1125  0.4830
   42MOL   C18313385   0.662   6.863   3.470 -0.4637  0.2431 -0.0073
   42MOL   C18413386   0.622   6.735   3.509  0.0756  0.8993  0.2885
   42MOL   C18513387   0.495   6.716   3.568  0.4720  0.2200 -0.3868
   42MOL   C18613388   0.267   6.790   3.780  0.1250  0.6569 -0.0433
   42MOL   H18713389   0.223   6.726   3.586  0.0772 -0.3772  0.8633
   42MOL   H18813390   0.393   7.048   3.555  1.3262  0.4618  2.0637
   42MOL   H18913391   0.764   6.860   3.435 -0.4979  1.4753 -0.2353
   42MOL   H19013392   0.696   6.655   3.505 -0.3188  0.5175  0.6054
   42MOL   H19113393   0.474   6.621   3.615  3.5113  0.5350  1.7267
   42MOL   H19213394   0.167   6.758   3.807 -0.0311 -0.3636 -1.7393
   42MOL   H19313395   0.312   6.692   3.796  0.4496  0.8030 -0.0519
   42MOL   C19413396   0.340   6.894   3.867  0.4371 -0.5315 -0.1736
   42MOL   C19513397   0.266   7.027   3.882  0.1283  0.1909 -0.5031
   42MOL   C19613398   0.334   7.143   3.855 -0.6867 -0.4520  0.0388
   42MOL   C19713399   0.267   7.267   3.875  0.1918 -0.4136  0.3572
   42MOL  Cl19813400   0.354   7.413   3.856  0.0021  0.2075  0.0897
   42MOL   C19913401   0.131   7.271   3.911 -0.5149 -0.2315 -0.5707
   42MOL   C20013402   0.059   7.152   3.931  0.6188 -0.2018 -0.1582
   42MOL   C20113403   0.130   7.035   3.919  0.5205  0.4818  0.0357
   42MOL   C20213404   0.344   6.835   4.009  0.1441 -0.2660  0.8324
   42MOL   H20313405   0.441   6.910   3.829 -0.2025 -0.1693 -1.7312
   42MOL   H20413406   0.437   7.159   3.825 -1.2143 -0.8844 -2.1560
   42MOL   H20513407   0.080   7.364   3.931  0.2573 -0.0975  0.9043
   42MOL   H20613408   8.389   7.150   3.957  0.3217 -1.1715 -1.4181
   42MOL   H20713409   0.076   6.946   3.948  3.2402 -1.1953  0.2032
   42MOL   H20813410   0.243   6.834   4.052 -0.1290 -0.0241  0.2075
   42MOL   H20913411   0.375   6.731   3.994  0.6639  0.0167 -0.0582
   42MOL   C21013412   0.440   6.893   4.114 -0.4084  0.5288 -0.3278
   42MOL   C21113413   0.442   7.042   4.138  0.7930 -0.3310 -0.1072
   42MOL   C21213414   0.336   7.103   4.202  0.1658  0.1275  0.2696
   42MOL   C21313415   0.340   7.240   4.230 -0.4190 -0.2383 -0.2769
   42MOL  Cl21413416   0.219   7.322   4.320  0.0178  0.2129 -0.0300
   42MOL   C21513417   0.440   7.320   4.174 -0.0115  0.2373  0.5927
   42MOL   C21613418   0.552   7.257   4.113  0.6374 -0.7782 -0.3855
   42MOL   C21713419   0.555   7.116   4.100  0.3088 -0.3233  0.0981
   42MOL   C21813420   0.424   6.817   4.248 -0.1417  0.1945  0.8699
   42MOL   H21913421   0.534   6.862   4.069 -1.2065  0.5783 -2.0881
   42MOL   H22013422   0.262   7.037   4.246  0.7154 -0.9184 -0.3716
   42MOL   H22113423   0.431   7.427   4.170  0.5347  0.2637 -0.1029
   42MOL   H22213424   0.633   7.309   4.065  0.8014  0.1665  0.8953
   42MOL   H22313425   0.632   7.062   4.047  0.4849 -2.1776  2.1468
   42MOL   H22413426   0.487   6.873   4.318  0.3285  1.2077 -0.3345
   42MOL   H22513427   0.322   6.828   4.284 -0.5543  0.6863 -0.4107
   42MOL   C22613428   0.475   6.665   4.259  0.4652 -0.1412 -0.3004
   42MOL   C22713429   0.612   6.647   4.193  0.2945 -0.2439  0.6740
   42MOL   C22813430   0.622   6.601   4.058 -0.6787 -0.7540 -0.0274
   42MOL   C22913431   0.749   6.579   4.003  0.4875  0.0498  0.1890
   42MOL  Cl23013432   0.748   6.498   3.852  0.3172 -0.1432  0.2179
   42MOL   C23113433   0.862   6.624   4.064 -0.6641 -0.5784 -0.0940
   42MOL   C23213434   0.853   6.675   4.200 -0.3849 -0.1396  0.3500
   42MOL   C23313435   0.728   6.682   4.261  0.1002 -0.0704 -0.2572
   42MOL   C23413436   0.468   6.607   4.402 -0.2770  0.2242 -0.0072
   42MOL   H23513437   0.406   6.606   4.198  0.8264  0.0622 -0.9039
   42MOL   H23613438   0.537   6.568   3.999  0.5660 -1.7759 -1.2802
   42MOL   H23713439   0.961   6.614   4.020  0.5921 -0.1395  2.5424
   42MOL   H23813440   0.943   6.707   4.250  0.9296 -0.7387 -1.5746
   42MOL   H23913441   0.736   6.713   4.364 -0.4560  3.6171 -1.2408
   42MOL   H24013442   0.522   6.513   4.411  0.0108  0.3647 -0.2601
   42MOL   H24113443   0.514   6.672   4.476 -0.5360  2.2063 -1.5353
   42MOL   C24213444   0.316   6.572   4.456  0.4506  0.4811 -0.8193
   42MOL   C24313445   0.236   6.501   4.346  0.0736 -0.1004  0.5051
   42MOL   C24413446   0.157   6.569   4.253  1.0023 -0.2423 -0.3201
   42MOL   C24513447   0.095   6.499   4.148 -0.3443  0.6889  0.7276
   42MOL  Cl24613448   0.004   6.584   4.029 -0.4224 -0.2680 -0.1151
   42MOL   C24713449   0.101   6.362   4.137 -0.1894  0.8985 -0.0156
   42MOL   C24813450   0.171   6.293   4.234  0.0403 -0.2161  0.4548
   42MOL   C24913451   0.246   6.360   4.337  0.0036  0.3161  0.5292
   42MOL   C25013452   0.308   6.513   4.601  0.0590  0.2105 -0.1937
   42MOL   H25113453   0.263   6.667   4.448 -0.9654 -0.4329 -2.4602
   42MOL   H25213454   0.147   6.676   4.266  2.2709 -0.2403  0.8006
   42MOL   H25313455   0.053   6.305   4.059  0.5015 -0.4886  0.5563
   42MOL   H25413456   0.177   6.185   4.234 -1.9264 -0.3420  1.1690
   42MOL   H25513457   0.318   6.306   4.396  0.4811 -0.6500 -0.9047
   42MOL   H25613458   0.340   6.409   4.601 -1.4489 -0.2828 -1.8284
   42MOL   H25713459   0.387   6.567   4.653  0.2635 -0.4419  0.1817
   42MOL   C25813460   0.182   6.531   4.682  0.0759 -0.3221  0.4655
   42MOL   C25913461   0.074   6.440   4.625 -0.4061  0.2966  0.8722
   42MOL   C26013462   8.389   6.501   4.584  0.3769 -0.4256  0.9298
   42MOL   C26113463   8.287   6.418   4.540  0.2833  0.0129 -0.2894
   42MOL  Cl26213464   8.133   6.470   4.493 -0.3317 -0.4079  0.0424
   42MOL   C26313465   8.304   6.281   4.519  0.2135 -0.5451 -0.0795
   42MOL   C26413466   8.418   6.219   4.575 -0.2646  0.0933 -0.5284
   42MOL   C26513467   0.089   6.299   4.619 -0.1386 -0.0463 -0.2168
   42MOL   C26613468   0.187   6.499   4.836  0.3183 -0.1403 -0.3210
   42MOL   H26713469   0.161   6.638   4.673  0.1020 -0.3343  0.2718
   42MOL   H26813470   8.381   6.608   4.580  0.1309 -0.4892 -0.4768
   42MOL   H26913471   8.231   6.226   4.462 -0.5031 -1.7415  1.9400
   42MOL   H27013472   8.427   6.111   4.571  1.6706  0.1731  1.0856
   42MOL   H27113473   0.177   6.250   4.658  0.9926  0.6897 -1.7688
   42MOL   H27213474   0.088   6.473   4.874  1.3447 -2.4022  0.9159
   42MOL   H27313475   0.253   6.416   4.861  0.6487  0.2726  0.1732
   42MOL   C27413476   0.249   6.616   4.924 -0.1674 -0.4010  0.5892
   42MOL   C27513477   0.214   6.595   5.076 -1.0075  0.1633 -0.2891
   42MOL   C27613478   0.125   6.688   5.137  0.1869 -0.5625  0.7364
   42MOL   C27713479   0.094   6.669   5.273 -0.6211  0.0954 -0.4346
   42MOL  Cl27813480   0.019   6.799   5.359 -0.3672  0.2845  0.5185
   42MOL   C27913481   0.144   6.554   5.343 -0.0152 -0.3109  0.5340
   42MOL   C28013482   0.225   6.456   5.283  0.5841  0.1087 -1.2842
   42MOL   C28113483   0.259   6.481   5.150  0.0651  0.0110 -0.2296
   42MOL   C28213484   0.402   6.645   4.909  0.5021  0.3770  0.1432
   42MOL   H28313485   0.196   6.710   4.907  2.4470  0.6803 -1.8638
   42MOL   H28413486   0.077   6.771   5.087 -0.1998 -1.4262 -0.3467
   42MOL   H28513487   0.114   6.538   5.445 -0.2344 -0.7437  0.4020
   42MOL   H28613488   0.256   6.369   5.340  0.4949  0.2039 -1.0891
   42MOL   H28713489   0.331   6.419   5.098 -1.3140  0.4972 -2.8187
   42MOL   H28813490   0.446   6.660   5.008 -2.5032  0.0017  1.5950
   42MOL   H28913491   0.447   6.553   4.873 -0.2854  0.8807 -2.1971
   42MOL   C29013492   0.456   6.764   4.821  0.1396 -0.2986  0.0470
   42MOL   C29113493   0.376   6.889   4.842  0.0543  0.0226  0.5650
   42MOL   C29213494   0.358   6.944   4.972 -0.9057 -0.3917  0.3710
   42MOL   C29313495   0.288   7.063   4.996 -0.3969  0.6935 -0.5180
   42MOL  Cl29413496   0.242   7.115   5.159 -0.4411  0.0859  0.2391
   42MOL   C29513497   0.250   7.140   4.885  0.9022  0.1381  0.1510
   42MOL   C29613498   0.261   7.091   4.756  0.1905  0.3156 -0.2158
   42MOL   C29713499   0.325   6.964   4.733  0.3852  0.1172  0.1412
   42MOL   C29813500   0.604   6.783   4.862  0.3923 -0.0251 -0.3778
   42MOL   H29913501   0.453   6.739   4.715 -0.9954 -0.1237  0.0210
   42MOL   H30013502   0.395   6.884   5.054  1.5222 -1.7113 -1.6286
   42MOL   H30113503   0.214   7.240   4.898 -1.7979 -0.9173  1.1637
   42MOL   H30213504   0.216   7.140   4.672 -2.9727 -0.8115  0.7394
   42MOL   H30313505   0.346   6.933   4.631  0.6232 -1.7820  0.7493
   42MOL   H30413506   0.613   6.838   4.957  1.3744 -1.4081  0.3364
   42MOL   H30513507   0.653   6.687   4.872  1.1458  0.5285  1.4533
   42MOL   C30613508   0.702   6.834   4.750 -0.0243  0.5577  0.5209
   42MOL   C30713509   0.651   6.958   4.687 -0.2432 -0.1847 -0.0478
   42MOL   C30813510   0.634   7.080   4.763 -0.8734  0.1271 -0.6796
   42MOL   C30913511   0.575   7.197   4.695 -1.1993  0.7678 -1.1241
   42MOL  Cl31013512   0.531   7.347   4.780  0.6901  0.0317 -0.0762
   42MOL   C31113513   0.546   7.194   4.559 -0.2150 -0.1601 -0.2773
   42MOL   C31213514   0.586   7.088   4.482 -0.4040  0.3021  0.0048
   42MOL   C31313515   0.624   6.971   4.547 -0.0450 -0.4647  0.5973
   42MOL   C31413516   0.840   6.844   4.813 -0.5046 -0.1024 -0.3789
   42MOL   H31513517   0.723   6.760   4.673  1.3447  2.6574 -1.1580
   42MOL   H31613518   0.663   7.086   4.867  1.8154 -1.9575 -1.2294
   42MOL   H31713519   0.509   7.278   4.501 -1.5586  0.0660  0.8920
   42MOL   H31813520   0.559   7.078   4.378  0.2792  3.2140 -0.5103
   42MOL   H31913521   0.653   6.884   4.491  0.9983 -0.5581  1.2759
   42MOL   H32013522   0.870   6.756   4.871  1.3752  0.9184  0.2270
   42MOL   H32113523   0.911   6.876   4.737 -2.3080  0.8436 -1.7045
   42MOL   H32213524   0.837   6.924   4.887  0.0892 -1.1297  0.7793
   43MOL     C113525   1.136   7.104   1.399  0.6333  0.0797 -0.2370
   43MOL     C213526   1.268   7.037   1.387 -0.5086  0.0908  0.4964
   43MOL     C313527   1.384   7.108   1.425 -0.2202 -0.2091  0.3314
   43MOL     C413528   1.511   7.050   1.399 -0.3440 -0.7156 -0.2908
   43MOL    Cl513529   1.656   7.131   1.452  0.0725 -0.1115 -0.1544
   43MOL     C613530   1.517   6.920   1.346 -0.2259 -0.8586 -0.3845
   43MOL     C713531   1.396   6.846   1.319 -0.2879 -0.0663 -0.0101
   43MOL     C813532   1.274   6.908   1.329 -0.4536 -0.0627 -1.0888
   43MOL     C913533   1.097   7.177   1.263 -0.1461 -0.1830 -0.2580
   43MOL    H1013534   1.123   7.175   1.481  0.3078 -0.4415  0.1597
   43MOL    H1113535   1.373   7.209   1.462  1.0344 -0.6008  1.8246
   43MOL    H1213536   1.615   6.878   1.331  0.7835  0.7759  1.3783
   43MOL    H1313537   1.401   6.745   1.282  0.8019  0.2974 -0.9268
   43MOL    H1413538   1.187   6.853   1.294 -0.9096  0.2074 -0.3853
   43MOL    H1513539   1.173   7.249   1.234 -1.5864  0.4529 -2.5724
   43MOL    H1613540   1.095   7.100   1.186  1.0132  0.5921 -1.0791
   43MOL    H1713541   1.066   7.025   1.427  0.0164  0.4281 -0.7725
   43MOL    C1813542   0.963   7.261   1.279  0.0650 -0.4458  0.0683
   43MOL    C1913543   0.959   7.361   1.394  0.3101  0.1726  0.0311
   43MOL    C2013544   0.880   7.337   1.510  0.7179  0.2524 -0.5133
   43MOL    C2113545   0.873   7.435   1.607  0.3440  0.3340 -0.7786
   43MOL   Cl2213546   0.779   7.420   1.753  0.2848  0.3422 -0.5169
   43MOL    C2313547   0.945   7.553   1.594  0.1665  0.1788  0.5266
   43MOL    C2413548   1.025   7.578   1.478  0.3405 -0.0352  0.4160
   43MOL    C2513549   1.032   7.480   1.386  0.1865  0.2966  0.1633
   43MOL    C2613550   0.933   7.306   1.134  0.0678  0.2296 -0.4245
   43MOL    H2713551   0.899   7.178   1.310  2.0818 -2.8170 -1.8624
   43MOL    H2813552   0.826   7.244   1.520  0.0364  0.5950 -0.9395
   43MOL    H2913553   0.943   7.636   1.664 -2.1174  0.6540 -0.0584
   43MOL    H3013554   1.074   7.672   1.458  0.0651 -0.0003 -0.0919
   43MOL    H3113555   1.078   7.490   1.289  1.6946  1.3018  0.9659
   43MOL    H3213556   0.998   7.389   1.107 -0.0844 -0.0696 -1.7687
   43MOL    H3313557   0.959   7.241   1.051 -0.1197  0.4110 -0.6282
   43MOL    C3413558   0.786   7.347   1.112  0.0475 -0.0481 -0.7277
   43MOL    C3513559   0.776   7.464   1.018  0.1869  0.3899 -0.4452
   43MOL    C3613560   0.827   7.452   0.884  0.4235  0.2267  0.3520
   43MOL    C3713561   0.831   7.558   0.797 -0.0420  0.4831 -0.5452
   43MOL   Cl3813562   0.904   7.540   0.638 -0.1696 -0.2711 -0.0013
   43MOL    C3913563   0.791   7.687   0.849 -0.4398  0.4425 -0.4156
   43MOL    C4013564   0.738   7.703   0.978  0.0114 -0.5457  0.2471
   43MOL    C4113565   0.730   7.590   1.063  0.2305 -0.4534 -0.1921
   43MOL    C4213566   0.697   7.225   1.075 -0.1628  0.3337 -0.0619
   43MOL    H4313567   0.753   7.390   1.207 -0.4786 -1.6284 -0.1767
   43MOL    H4413568   0.873   7.357   0.861  1.8563  0.8810  0.4115
   43MOL    H4513569   0.794   7.769   0.779 -0.2731  2.5129  1.9477
   43MOL    H4613570   0.705   7.800   1.013  1.7232 -0.0124  0.4160
   43MOL    H4713571   0.702   7.604   1.167  0.5480  3.2550 -0.5481
   43MOL    H4813572   0.755   7.171   0.999  0.4210 -0.1074  0.6876
   43MOL    H4913573   0.692   7.143   1.146 -3.0341  2.3091  2.1463
   43MOL    C5013574   0.551   7.253   1.018 -0.6986  1.1563  0.9075
   43MOL    C5113575   0.497   7.132   0.945  0.4536  0.8693 -1.2630
   43MOL    C5213576   0.485   7.007   1.010  0.0269  0.3919  0.1123
   43MOL    C5313577   0.446   6.895   0.932 -0.7158  0.7488 -0.6521
   43MOL   Cl5413578   0.426   6.728   1.000 -0.3234  0.2130  0.6954
   43MOL    C5513579   0.413   6.909   0.793  0.5642  0.5139 -0.1302
   43MOL    C5613580   0.418   7.036   0.734  0.3366 -0.1520  0.1273
   43MOL    C5713581   0.460   7.144   0.809 -0.7525 -0.0294  0.1614
   43MOL    C5813582   0.450   7.293   1.125 -0.0444 -0.1053 -1.2348
   43MOL    H5913583   0.543   7.336   0.948  0.6497  0.6858  0.1975
   43MOL    H6013584   0.504   6.989   1.115 -3.7989 -2.2854  0.4389
   43MOL    H6113585   0.378   6.818   0.747  0.1078  1.4159 -1.6077
   43MOL    H6213586   0.378   7.041   0.633  1.4486  1.8470 -0.2525
   43MOL    H6313587   0.449   7.246   0.775 -0.7649 -0.3141 -0.7017
   43MOL    H6413588   0.420   7.216   1.195  3.1039  0.2969  0.6320
   43MOL    H6513589   0.506   7.351   1.198  2.7261 -1.5790 -2.1168
   43MOL    C6613590   0.324   7.375   1.082  0.7235  0.1449  0.9778
   43MOL    C6713591   0.195   7.344   1.160 -0.3040 -0.6223  0.3569
   43MOL    C6813592   0.202   7.342   1.299  0.2100 -0.5381  0.6096
   43MOL    C6913593   0.084   7.313   1.376 -0.2353 -0.2832  0.5383
   43MOL   Cl7013594   0.089   7.316   1.549 -0.0538 -0.1450  0.7748
   43MOL    C7113595   8.407   7.283   1.312 -0.2722  0.6991 -0.2507
   43MOL    C7213596   8.395   7.282   1.169  0.2838 -0.7897 -0.2747
   43MOL    C7313597   0.075   7.311   1.090  0.7825 -0.0055  0.2600
   43MOL    C7413598   0.354   7.527   1.069 -0.2348  0.3627  0.5327
   43MOL    H7513599   0.298   7.344   0.981 -0.9718  2.1165  0.7791
   43MOL    H7613600   0.294   7.367   1.350  0.4015 -1.0791  0.5288
   43MOL    H7713601   8.321   7.260   1.374  1.2389 -0.0058  1.6487
   43MOL    H7813602   8.300   7.253   1.127 -0.1312 -0.9966  0.7853
   43MOL    H7913603   0.064   7.309   0.983  0.6245  2.4247  0.2111
   43MOL    H8013604   0.348   7.580   1.165  1.0501  1.0007  0.2644
   43MOL    H8113605   0.452   7.531   1.023 -0.6651  0.6210 -0.3821
   43MOL    C8213606   0.272   7.615   0.970  0.1523  0.3290 -0.6589
   43MOL    C8313607   0.127   7.623   1.021 -0.6816  0.4580  0.3744
   43MOL    C8413608   0.017   7.594   0.941  0.2215  0.1486 -0.1911
   43MOL    C8513609   8.324   7.609   0.993 -0.0517  0.2351 -0.0826
   43MOL   Cl8613610   8.178   7.577   0.904 -0.0604  0.3996 -0.1810
   43MOL    C8713611   8.301   7.658   1.118  0.0848 -0.7243 -0.3872
   43MOL    C8813612   8.410   7.700   1.200  0.0332 -0.5125  0.4250
   43MOL    C8913613   0.105   7.674   1.153 -0.0734 -0.0068  0.4002
   43MOL    C9013614   0.335   7.761   0.950  0.7488  0.0871  0.7292
   43MOL    H9113615   0.263   7.570   0.871 -1.4702 -2.4272  0.6899
   43MOL    H9213616   0.028   7.572   0.836 -0.0953 -2.8085  0.3484
   43MOL    H9313617   8.195   7.653   1.139  0.4374 -1.1727  1.3401
   43MOL    H9413618   8.389   7.734   1.301 -1.2215  0.2928 -0.0951
   43MOL    H9513619   0.185   7.693   1.223  0.2383 -2.1785  0.6752
   43MOL    H9613620   0.339   7.812   1.047 -1.6970  0.1719  0.8252
   43MOL    H9713621   0.432   7.765   0.900  0.6576  0.6875  0.5921
   43MOL    C9813622   0.245   7.860   0.870  0.6390 -0.4148  0.2253
   43MOL    C9913623   0.293   8.006   0.875  0.0402 -0.5531  0.7688
   43MOL   C10013624   0.390   8.051   0.778 -0.1463 -0.1449 -0.8502
   43MOL   C10113625   0.433   8.179   0.782  0.3494  0.1972 -0.5278
   43MOL  Cl10213626   0.563   8.227   0.679  0.2978 -0.3949  0.0912
   43MOL   C10313627   0.375   8.271   0.870 -0.0601  0.1988  0.1810
   43MOL   C10413628   0.276   8.227   0.955  0.7492  0.0778  0.1139
   43MOL   C10513629   0.239   8.095   0.961  0.2305 -0.1837  0.0177
   43MOL   C10613630   0.200   7.837   0.716 -0.2357  0.1489 -0.5402
   43MOL   H10713631   0.156   7.861   0.933 -0.8453  2.2871 -1.8087
   43MOL   H10813632   0.446   7.980   0.718  0.6598 -1.1737  1.0856
   43MOL   H10913633   0.403   8.375   0.872  0.5978  0.0819 -1.6089
   43MOL   H11013634   0.233   8.301   1.022  0.0470 -1.5877  1.5625
   43MOL   H11113635   0.169   8.062   1.036  1.9229  2.1531  2.7659
   43MOL   H11213636   0.290   7.825   0.655  0.0862 -0.8259  0.1201
   43MOL   H11313637   0.157   7.737   0.708 -0.8889  0.4118 -0.3426
   43MOL   C11413638   0.090   7.939   0.672 -0.9492  0.3737 -0.2031
   43MOL   C11513639   0.111   7.987   0.534  0.6512 -0.1296  0.6280
   43MOL   C11613640   0.064   7.916   0.421  0.0360 -0.3308 -0.6825
   43MOL   C11713641   0.089   7.974   0.291 -0.0468  0.3646  0.2887
   43MOL  Cl11813642   0.059   7.879   0.142  0.2914  0.2531 -0.3007
   43MOL   C11913643   0.137   8.108   0.283 -0.3366 -0.4996 -0.7294
   43MOL   C12013644   0.177   8.174   0.401  0.3846  0.4919 -0.3059
   43MOL   C12113645   0.167   8.114   0.528  0.1468 -0.3893 -0.7698
   43MOL   C12213646   8.376   7.892   0.700 -0.3502 -0.0395  0.0010
   43MOL   H12313647   0.102   8.025   0.737 -0.2185  0.4411 -0.4292
   43MOL   H12413648   0.030   7.814   0.430 -1.9799  0.5972  3.1056
   43MOL   H12513649   0.146   8.156   0.186 -0.6678 -0.7973 -0.9096
   43MOL   H12613650   0.215   8.275   0.397  2.6138 -0.3158  0.0792
   43MOL   H12713651   0.190   8.175   0.614 -0.0253 -0.0275 -0.9813
   43MOL   H12813652   8.352   7.815   0.627  1.3524 -1.7618  1.2228
   43MOL   H12913653   8.375   7.837   0.794  0.7683  0.5664  0.3744
   43MOL   C13013654   8.260   7.986   0.721 -0.3150  0.1414  0.0216
   43MOL   C13113655   8.294   8.100   0.817  0.4244 -0.2570  0.6478
   43MOL   C13213656   8.362   8.212   0.777 -0.7899  0.4234 -0.1174
   43MOL   C13313657   8.398   8.314   0.871  0.7931 -0.4004  0.1006
   43MOL  Cl13413658   0.072   0.010   0.826 -0.3568 -0.0459  0.4866
   43MOL   C13513659   8.366   8.295   1.008 -0.3117 -0.4344  0.8571
   43MOL   C13613660   8.297   8.182   1.047  0.6187 -0.9062  0.2182
   43MOL   C13713661   8.260   8.081   0.955 -0.3901  0.2333  0.7288
   43MOL   C13813662   8.184   8.044   0.596  0.9907  0.2539 -0.1712
   43MOL   H13913663   8.189   7.924   0.775 -0.7704  0.1605 -0.5456
   43MOL   H14013664   8.391   8.219   0.674 -1.1158  0.0933 -0.2303
   43MOL   H14113665   8.404   8.371   1.074 -0.9714 -0.1445  0.9126
   43MOL   H14213666   8.271   8.166   1.150  1.2813 -2.2903  0.1929
   43MOL   H14313667   8.200   7.999   0.990 -0.3205 -0.8178 -1.5231
   43MOL   H14413668   8.128   8.129   0.634 -0.9057 -0.9757 -0.1854
   43MOL   H14513669   8.253   8.086   0.522  1.0497  2.9320  1.3249
   43MOL   C14613670   8.087   7.944   0.519  0.1011 -0.2110  0.2370
   43MOL   C14713671   7.994   7.873   0.612 -0.6128  0.5613 -0.1481
   43MOL   C14813672   7.950   7.931   0.734 -0.4766 -0.1985 -0.0806
   43MOL   C14913673   7.889   7.856   0.835  0.2779  0.7300  0.2175
   43MOL  Cl15013674   7.842   7.942   0.980  0.0589  0.3147  0.1284
   43MOL   C15113675   7.861   7.720   0.813 -0.0820  0.1529  0.0335
   43MOL   C15213676   7.896   7.663   0.690 -0.3109  0.5093  0.4461
   43MOL   C15313677   7.963   7.736   0.591  0.8508 -0.1257  0.3797
   43MOL   C15413678   8.012   8.020   0.411  0.0205  0.4933  0.1514
   43MOL   H15513679   8.156   7.874   0.472 -1.0334 -0.3042 -1.3044
   43MOL   H15613680   7.965   8.033   0.765  0.8537 -0.5447  0.4575
   43MOL   H15713681   7.801   7.664   0.884 -0.4670 -0.4390 -0.7462
   43MOL   H15813682   7.871   7.560   0.672 -0.3428  0.2257  2.0049
   43MOL   H15913683   7.981   7.700   0.491  2.0168 -0.2577  0.6405
   43MOL   H16013684   7.946   8.101   0.442 -0.9240  0.8716 -2.6974
   43MOL   H16113685   8.091   8.072   0.357 -1.2764  2.7674  0.4073
   43MOL   C16213686   7.935   7.933   0.305  0.3338  0.0086 -0.4746
   43MOL   C16313687   7.819   8.014   0.253  0.6562  0.3300 -0.4804
   43MOL   C16413688   7.820   8.091   0.132  0.3879 -0.5129 -0.1194
   43MOL   C16513689   7.712   8.156   0.082 -0.5478  0.6214 -0.6549
   43MOL  Cl16613690   7.751   8.240   8.370 -0.2284  0.2944 -0.1501
   43MOL   C16713691   7.594   8.173   0.149  0.6018  0.8451 -0.3311
   43MOL   C16813692   7.582   8.094   0.265 -0.5818 -0.1217 -0.8097
   43MOL   C16913693   7.687   8.010   0.316 -0.4165 -0.2609  0.4448
   43MOL   C17013694   8.026   7.879   0.189  0.2829 -0.0646  0.1512
   43MOL   H17113695   7.887   7.848   0.353  1.1478 -0.4844 -0.5112
   43MOL   H17213696   7.913   8.093   0.077  0.8716 -1.2512  0.6676
   43MOL   H17313697   7.510   8.233   0.117 -0.7128 -0.6334  0.3137
   43MOL   H17413698   7.483   8.091   0.308  0.0850 -2.2165  0.6647
   43MOL   H17513699   7.669   7.953   0.406  0.8975 -2.3320 -0.5487
   43MOL   H17613700   8.071   7.962   0.135 -0.2832 -0.6361 -1.2093
   43MOL   H17713701   8.105   7.828   0.244  0.2883 -1.9153 -1.5363
   43MOL   C17813702   7.966   7.787   0.085  0.7925 -0.1923 -0.0164
   43MOL   C17913703   8.069   7.725   8.423  0.4458  0.1981 -0.4961
   43MOL   C18013704   8.198   7.665   0.027  0.1673  0.7325 -0.5713
   43MOL   C18113705   8.277   7.610   8.365 -0.5467 -0.7646 -0.3880
   43MOL  Cl18213706   8.424   7.538   8.420  0.4957  0.1251  0.0324
   43MOL   C18313707   8.231   7.596   8.233 -0.1216  0.0679 -0.4610
   43MOL   C18413708   8.106   7.649   8.197  0.1481 -0.2701 -0.1251
   43MOL   C18513709   8.036   7.722   8.290  0.6034  0.1011  0.7494
   43MOL   C18613710   7.878   7.670   0.151 -0.2820 -0.1325  0.1563
   43MOL   H18713711   7.897   7.847   0.026 -0.0742 -1.0446  0.1241
   43MOL   H18813712   8.235   7.667   0.128  1.1884  2.3506 -0.9471
   43MOL   H18913713   8.296   7.543   8.166 -1.4298 -0.0557 -1.6514
   43MOL   H19013714   8.062   7.648   8.098  0.1423  1.0911 -0.1503
   43MOL   H19113715   7.937   7.756   8.266  0.2594  0.9088  3.1667
   43MOL   H19213716   7.922   7.649   0.248 -1.4937  0.1902  0.7849
   43MOL   H19313717   7.783   7.721   0.170  0.7375  0.9406  2.6494
   43MOL   C19413718   7.848   7.540   0.066  0.3927 -0.2196  0.0612
   43MOL   C19513719   7.946   7.432   0.103  0.4639  0.1082  1.2695
   43MOL   C19613720   8.014   7.367   8.435  0.9413  0.5815  0.2531
   43MOL   C19713721   8.097   7.257   0.032 -0.5455  0.1210  0.4550
   43MOL  Cl19813722   8.195   7.194   8.346  0.0283  0.2266  0.2627
   43MOL   C19913723   8.107   7.206   0.161 -0.1890 -0.0139  0.1236
   43MOL   C20013724   8.038   7.269   0.265  0.3047  0.0656  0.3158
   43MOL   C20113725   7.948   7.369   0.233  0.4561  0.5285  0.0137
   43MOL   C20213726   7.696   7.484   0.064 -0.5621 -0.0763 -0.4705
   43MOL   H20313727   7.864   7.560   8.395  0.8044 -0.8519  0.0018
   43MOL   H20413728   8.009   7.418   8.340  2.0277 -1.0718 -0.7133
   43MOL   H20513729   8.186   7.134   0.179 -1.1188 -0.6949  1.5958
   43MOL   H20613730   8.041   7.236   0.368  0.6408 -0.6736  0.0663
   43MOL   H20713731   7.868   7.384   0.304  0.3545 -0.9959  0.2297
   43MOL   H20813732   7.709   7.376   0.058  1.5455  0.2050 -1.9441
   43MOL   H20913733   7.642   7.507   0.155 -0.5658  1.0381 -0.7411
   43MOL   C21013734   7.606   7.531   8.384 -0.2035 -0.4273 -0.3904
   43MOL   C21113735   7.498   7.421   8.364 -0.1290 -0.5034  0.6116
   43MOL   C21213736   7.493   7.347   8.238 -1.3609 -0.8384  0.1188
   43MOL   C21313737   7.405   7.236   8.236  0.5056 -1.3515  0.3906
   43MOL  Cl21413738   7.419   7.123   8.101 -0.1496  0.2998 -0.0026
   43MOL   C21513739   7.303   7.211   8.326 -0.1296 -0.5135 -0.1572
   43MOL   C21613740   7.303   7.294   0.004  0.6200  0.5614  0.3486
   43MOL   C21713741   7.398   7.397   0.024 -1.0289 -0.5626 -0.0992
   43MOL   C21813742   7.538   7.666   8.417 -0.0494 -0.2328  0.0552
   43MOL   H21913743   7.668   7.534   8.295 -0.1928 -1.7088 -0.4448
   43MOL   H22013744   7.576   7.353   8.170 -0.8362 -0.0852  0.8085
   43MOL   H22113745   7.230   7.133   8.308 -0.4785 -0.1786 -0.2006
   43MOL   H22213746   7.233   7.272   0.082 -1.6380  2.8305 -0.9667
   43MOL   H22313747   7.408   7.441   0.122 -0.7008  0.3549 -0.5440
   43MOL   H22413748   7.455   7.645   0.049 -0.0016 -0.2046  0.1246
   43MOL   H22513749   7.605   7.732   0.038  0.4824 -2.3559  2.0021
   43MOL   C22613750   7.475   7.751   8.302  0.2857  0.2713 -0.0678
   43MOL   C22713751   7.357   7.829   8.359  0.9859 -0.0949 -1.5256
   43MOL   C22813752   7.228   7.817   8.300 -0.4669 -0.1357  0.3995
   43MOL   C22913753   7.119   7.884   8.359 -1.2433 -0.2507  0.1329
   43MOL  Cl23013754   6.964   7.859   8.285  0.0665  0.0511  0.3179
   43MOL   C23113755   7.140   7.978   0.025 -0.8768  0.4056 -0.2037
   43MOL   C23213756   7.270   8.000   0.075  0.1342  0.4041  0.1796
   43MOL   C23313757   7.374   7.920   0.032 -0.2185 -0.0508 -0.6245
   43MOL   C23413758   7.580   7.831   8.229 -0.5270  0.2230 -0.2780
   43MOL   H23513759   7.427   7.676   8.240  0.2607 -0.2855  0.6207
   43MOL   H23613760   7.207   7.747   8.220  3.1300 -2.6733  1.5788
   43MOL   H23713761   7.058   8.035   0.067 -1.6561  0.7995 -2.2407
   43MOL   H23813762   7.294   8.063   0.160 -1.5897  0.3124  0.7511
   43MOL   H23913763   7.474   7.931   0.073  0.0162 -0.0242 -1.2011
   43MOL   H24013764   7.617   7.915   8.288  0.2219 -0.7115  0.5973
   43MOL   H24113765   7.656   7.755   8.213 -0.4108  1.0319 -3.9267
   43MOL   C24213766   7.547   7.871   8.086  0.1818 -0.0720  0.0337
   43MOL   C24313767   7.432   7.969   8.075  0.1774  0.2681 -0.0538
   43MOL   C24413768   7.324   7.933   7.995  0.0193 -0.3394  0.0408
   43MOL   C24513769   7.218   8.021   7.963  0.0683 -0.2227 -0.4958
   43MOL  Cl24613770   7.096   7.968   7.856  0.2485  0.2699  0.1897
   43MOL   C24713771   7.231   8.152   8.014  1.0078  0.1567 -0.6711
   43MOL   C24813772   7.345   8.191   8.095  0.1362  0.0109 -0.4814
   43MOL   C24913773   7.439   8.094   8.130  0.0915  0.3616  0.0639
   43MOL   C25013774   7.670   7.937   8.014  0.4212 -0.1801  0.5671
   43MOL   H25113775   7.535   7.781   8.025 -0.6485  0.4956 -0.6638
   43MOL   H25213776   7.316   7.835   7.950  2.0534 -0.7549  0.5295
   43MOL   H25313777   7.153   8.218   7.980 -1.6842 -3.3502 -1.6153
   43MOL   H25413778   7.344   8.294   8.126  0.2943  0.8406 -3.0718
   43MOL   H25513779   7.516   8.123   8.201  0.5181 -1.3585  0.3215
   43MOL   H25613780   7.641   7.978   7.917  0.9635  1.0104  0.9045
   43MOL   H25713781   7.707   8.015   8.081 -0.6220 -0.0524  1.0030
   43MOL   C25813782   7.795   7.848   7.994  0.7255  0.3063 -0.4307
   43MOL   C25913783   7.761   7.700   7.956  0.5667  0.4263  0.2628
   43MOL   C26013784   7.702   7.681   7.825  0.3419  0.5760  0.1488
   43MOL   C26113785   7.670   7.549   7.777 -0.6379 -0.1200 -0.7107
   43MOL  Cl26213786   7.584   7.521   7.634 -0.2316  0.0372 -0.4892
   43MOL   C26313787   7.711   7.440   7.855  0.1481 -0.2997  0.5767
   43MOL   C26413788   7.770   7.461   7.984  0.2040 -0.5734  0.5733
   43MOL   C26513789   7.794   7.589   8.030  0.0284 -0.0121 -0.4681
   43MOL   C26613790   7.894   7.908   7.894  0.7076 -0.0159 -0.6214
   43MOL   H26713791   7.849   7.840   8.088  1.5812  2.2158 -0.7260
   43MOL   H26813792   7.677   7.769   7.767 -1.9535 -1.5093 -2.1010
   43MOL   H26913793   7.686   7.337   7.835 -2.1086  0.6626 -1.9072
   43MOL   H27013794   7.804   7.376   8.041  0.0005  0.2852  2.0004
   43MOL   H27113795   7.846   7.594   8.125  1.6783  1.6517 -1.4234
   43MOL   H27213796   7.968   7.828   7.887 -0.7388 -1.5310  1.0735
   43MOL   H27313797   7.842   7.916   7.798 -0.1781  0.2839 -0.1181
   43MOL   C27413798   7.966   8.036   7.927 -0.1241  0.3121 -0.1463
   43MOL   C27513799   8.068   8.037   8.047  0.2055 -0.7021  0.6506
   43MOL   C27613800   8.181   7.953   8.057 -0.0054  0.3645 -0.5146
   43MOL   C27713801   8.269   7.965   8.156  0.2442  0.0608 -0.7381
   43MOL  Cl27813802   8.405   7.855   8.157 -0.2854 -0.5857  0.2973
   43MOL   C27913803   8.247   8.060   8.257 -0.2064  0.4865  0.0581
   43MOL   C28013804   8.131   8.142   8.249 -0.0798 -0.1070 -0.3898
   43MOL   C28113805   8.041   8.133   8.146 -0.3526  0.4057  0.1228
   43MOL   C28213806   8.039   8.098   7.804  0.2566 -0.0933  0.5654
   43MOL   H28313807   7.891   8.108   7.961  0.4025  1.1653 -0.7552
   43MOL   H28413808   8.191   7.870   7.989  1.9424 -0.6046  0.9218
   43MOL   H28513809   8.314   8.061   8.341  0.8626 -0.3759 -0.7813
   43MOL   H28613810   8.124   8.222   8.320  1.2074 -0.6047  0.3067
   43MOL   H28713811   7.964   8.210   8.147 -0.5225  0.2220  1.6777
   43MOL   H28813812   8.132   8.139   7.844  0.8714 -1.3795  0.4702
   43MOL   H28913813   8.084   8.022   7.741 -0.1829  0.4451 -0.4084
   43MOL   C29013814   7.955   8.202   7.733  0.3436 -0.8302 -0.1356
   43MOL   C29113815   7.914   8.318   7.818 -0.3327 -0.3922  0.6012
   43MOL   C29213816   7.791   8.382   7.787 -0.1670  0.3414  0.7613
   43MOL   C29313817   7.756   0.070   7.852 -0.0159  0.2272 -0.3848
   43MOL  Cl29413818   7.607   0.150   7.799  0.1576 -0.3536  0.2553
   43MOL   C29513819   7.833   0.124   7.953  0.0368 -0.7891 -0.3469
   43MOL   C29613820   7.954   0.056   7.983 -0.2578 -0.4882 -0.6597
   43MOL   C29713821   7.992   8.376   7.918 -0.6004  0.2668 -0.1385
   43MOL   C29813822   7.996   8.245   7.586  0.7475  0.9654 -0.3051
   43MOL   H29913823   7.854   8.163   7.724 -0.5588  1.6856 -1.2930
   43MOL   H30013824   7.721   8.350   7.710 -0.2060  2.5337 -0.1627
   43MOL   H30113825   7.788   0.204   8.011 -0.9261 -2.9357  1.9812
   43MOL   H30213826   8.017   0.087   8.065  0.7126  0.0291 -1.6006
   43MOL   H30313827   8.091   8.335   7.934 -0.6515  0.7579  1.5621
   43MOL   H30413828   7.919   8.303   7.534  1.1815  0.8220 -1.1214
   43MOL   H30513829   8.076   8.319   7.593  0.7402  0.7489  2.6220
   43MOL   C30613830   8.048   8.127   7.503  0.1183 -0.1794  0.5781
   43MOL   C30713831   7.935   8.024   7.492 -0.0522  0.7001  0.2242
   43MOL   C30813832   7.806   8.052   7.437  0.0903  0.1011  0.1394
   43MOL   C30913833   7.708   7.953   7.424 -0.4248 -0.0500 -0.1449
   43MOL  Cl31013834   7.559   7.981   7.342 -0.1989 -0.1689 -0.2321
   43MOL   C31113835   7.738   7.824   7.467 -0.7826 -0.2262  0.2761
   43MOL   C31213836   7.862   7.796   7.528  0.1797  0.4311 -0.0501
   43MOL   C31313837   7.961   7.891   7.539 -0.0805 -0.8269  0.1356
   43MOL   C31413838   8.074   8.185   7.367 -0.2434 -0.6996  0.5285
   43MOL   H31513839   8.140   8.078   7.536 -0.7452 -1.6262  0.9250
   43MOL   H31613840   7.796   8.147   7.386  2.0287 -0.2772 -0.9882
   43MOL   H31713841   7.662   7.748   7.458 -1.6837  0.7453 -0.4811
   43MOL   H31813842   7.882   7.695   7.560  1.0727 -0.2690 -2.6827
   43MOL   H31913843   8.048   7.850   7.588  0.3886 -2.1419 -1.7468
   43MOL   H32013844   8.162   8.249   7.367 -0.5587 -0.2571 -0.0375
   43MOL   H32113845   8.106   8.102   7.304  1.4527 -0.1525  0.6650
   43MOL   H32213846   7.987   8.234   7.323  0.1584 -0.7617 -0.3479
   44MOL     C113847   3.607   5.474   6.027  0.0616  1.0329 -0.7187
   44MOL     C213848   3.473   5.520   5.972  0.3452  0.3411  0.4051
   44MOL     C313849   3.456   5.519   5.834  0.0498  0.2759 -0.3960
   44MOL     C413850   3.335   5.567   5.778 -0.3329 -0.6560  0.1711
   44MOL    Cl513851   3.310   5.567   5.608  0.4605 -0.0024  0.0573
   44MOL     C613852   3.236   5.621   5.863  0.3728 -0.5840  0.6463
   44MOL     C713853   3.258   5.625   5.999 -0.0559  0.7935 -0.5864
   44MOL     C813854   3.374   5.573   6.062  0.0740  0.0317  0.6022
   44MOL     C913855   3.723   5.570   5.990  0.7296 -0.0884 -0.1827
   44MOL    H1013856   3.630   5.370   5.999  0.3067  0.2015  2.4262
   44MOL    H1113857   3.547   5.499   5.779  0.2275  0.8204 -0.3023
   44MOL    H1213858   3.146   5.659   5.818 -0.1465 -1.3908  1.0025
   44MOL    H1313859   3.175   5.658   6.061  2.1831  1.3079  2.2586
   44MOL    H1413860   3.384   5.562   6.169  1.6607  2.0766  0.7034
   44MOL    H1513861   3.712   5.595   5.884 -0.2333  2.1231  0.3981
   44MOL    H1613862   3.709   5.668   6.036 -0.0487 -0.8283  1.1653
   44MOL    H1713863   3.598   5.460   6.134 -2.1214 -0.1671 -1.0248
   44MOL    C1813864   3.863   5.510   6.019 -0.1100  0.1279  0.3374
   44MOL    C1913865   3.976   5.575   5.935  0.0020  0.4687  0.7117
   44MOL    C2013866   3.996   5.715   5.944  0.0426  0.0451 -0.3742
   44MOL    C2113867   4.097   5.778   5.871  0.4439 -0.4748  0.4200
   44MOL   Cl2213868   4.140   5.941   5.906 -0.3937 -0.1376 -0.0872
   44MOL    C2313869   4.171   5.703   5.776  0.3982  0.3667 -0.2930
   44MOL    C2413870   4.159   5.566   5.768 -0.0257  0.0565  0.3813
   44MOL    C2513871   4.059   5.497   5.846  0.2483 -0.2210  0.2920
   44MOL    C2613872   3.895   5.509   6.177  0.3052  0.0485 -0.1276
   44MOL    H2713873   3.870   5.404   5.995  3.2653  0.4052 -0.1162
   44MOL    H2813874   3.939   5.780   6.009  2.7043  3.3668 -1.2147
   44MOL    H2913875   4.248   5.746   5.714  0.8477 -1.8190 -1.3102
   44MOL    H3013876   4.230   5.513   5.708  0.4287  1.1495 -0.0478
   44MOL    H3113877   4.041   5.390   5.840 -2.9360  0.3470 -1.4186
   44MOL    H3213878   3.908   5.615   6.200  0.5099  0.1711 -0.7999
   44MOL    H3313879   3.810   5.484   6.240  0.5932 -2.9273 -0.8617
   44MOL    C3413880   4.025   5.443   6.213  0.8319 -0.7633 -0.0768
   44MOL    C3513881   4.103   5.527   6.314  0.1316  0.0707 -0.0905
   44MOL    C3613882   4.128   5.481   6.445 -0.5734  0.4199  0.5823
   44MOL    C3713883   4.221   5.543   6.527 -0.2592  0.2053 -0.3425
   44MOL   Cl3813884   4.245   5.489   6.695  0.2372 -0.0991 -0.1824
   44MOL    C3913885   4.294   5.657   6.480  0.2672 -0.3386 -1.0063
   44MOL    C4013886   4.268   5.698   6.347 -0.0358  0.0511 -0.5235
   44MOL    C4113887   4.168   5.642   6.270 -0.0122  0.5512  0.4840
   44MOL    C4213888   3.993   5.297   6.264  0.2456  0.4409  0.3008
   44MOL    H4313889   4.064   5.432   6.112 -2.9346  1.1922 -1.8545
   44MOL    H4413890   4.072   5.398   6.484 -1.2158  1.6273  2.3093
   44MOL    H4513891   4.371   5.708   6.537 -0.2876 -1.4664  0.8079
   44MOL    H4613892   4.335   5.778   6.317  0.5015  0.2396  1.1441
   44MOL    H4713893   4.154   5.669   6.166  1.2926  1.4310  0.5268
   44MOL    H4813894   3.959   5.295   6.367 -1.1293  4.4093  0.0301
   44MOL    H4913895   3.902   5.264   6.214  1.2178 -0.7430 -0.7192
   44MOL    C5013896   4.095   5.186   6.224 -0.2394  0.0967  0.7053
   44MOL    C5113897   4.218   5.201   6.314  0.4831 -0.6792  0.6679
   44MOL    C5213898   4.326   5.285   6.272  0.2663 -0.2658 -0.5027
   44MOL    C5313899   4.446   5.295   6.349  0.5985 -0.1150 -0.0281
   44MOL   Cl5413900   4.573   5.405   6.308 -0.1796  0.4358 -0.3494
   44MOL    C5513901   4.456   5.221   6.468 -0.0873  0.6360  0.2388
   44MOL    C5613902   4.342   5.149   6.520 -0.0693 -0.8128  0.3422
   44MOL    C5713903   4.227   5.135   6.440 -0.0536  0.2120 -0.8007
   44MOL    C5813904   4.043   5.039   6.224  0.2388 -0.0096  0.0622
   44MOL    H5913905   4.132   5.205   6.123 -2.5605 -3.3116 -0.8838
   44MOL    H6013906   4.323   5.336   6.177 -1.3365  0.8920  0.1549
   44MOL    H6113907   4.545   5.231   6.529  0.2067 -0.3990 -0.0003
   44MOL    H6213908   4.360   5.091   6.609  1.5940 -0.7522  0.0710
   44MOL    H6313909   4.148   5.069   6.474 -0.8545  1.0486 -1.0399
   44MOL    H6413910   4.119   4.963   6.201 -0.9862 -1.1811 -0.1750
   44MOL    H6513911   4.023   5.015   6.328 -2.2238  0.2782 -0.3157
   44MOL    C6613912   3.918   5.007   6.133 -0.0156 -0.5936  0.0062
   44MOL    C6713913   3.935   5.061   5.988  0.1623 -0.3475  0.2180
   44MOL    C6813914   3.823   5.130   5.931 -0.0038 -0.5085 -0.5884
   44MOL    C6913915   3.827   5.168   5.799 -0.7445 -0.3823 -0.3519
   44MOL   Cl7013916   3.678   5.226   5.731 -0.1248 -0.1962  0.2405
   44MOL    C7113917   3.936   5.139   5.718  0.1881  0.5088 -1.0498
   44MOL    C7213918   4.049   5.068   5.773 -0.2461 -0.0339 -0.3326
   44MOL    C7313919   4.047   5.028   5.908  0.0025 -0.3281  0.4176
   44MOL    C7413920   3.902   4.851   6.136  0.4412  0.2430  0.1364
   44MOL    H7513921   3.830   5.056   6.175 -0.5061 -1.8722  0.4839
   44MOL    H7613922   3.731   5.141   5.985 -0.1210  1.1337 -1.0823
   44MOL    H7713923   3.931   5.170   5.615 -3.2938  0.8808 -0.8407
   44MOL    H7813924   4.145   5.059   5.724  0.3018  0.8250  0.5634
   44MOL    H7913925   4.133   4.977   5.949  0.3909 -1.4494 -1.7204
   44MOL    H8013926   3.988   4.824   6.074 -1.0523  1.0283 -2.3710
   44MOL    H8113927   3.930   4.808   6.232 -1.3350  0.5198  0.7952
   44MOL    C8213928   3.764   4.790   6.076  0.1327 -0.2682  0.3020
   44MOL    C8313929   3.801   4.665   5.996 -0.2892 -0.5348 -0.8599
   44MOL    C8413930   3.854   4.553   6.060  0.2557 -0.0543  0.2332
   44MOL    C8513931   3.888   4.440   5.981  0.7758 -0.0671  0.0042
   44MOL   Cl8613932   3.956   4.296   6.045  0.0989 -0.0428  0.3890
   44MOL    C8713933   3.870   4.445   5.840 -0.5183  0.0564 -0.2311
   44MOL    C8813934   3.817   4.557   5.775  0.0254  0.0994  0.3295
   44MOL    C8913935   3.787   4.670   5.854  0.7494 -0.6286 -0.5478
   44MOL    C9013936   3.673   4.757   6.191 -0.4944  0.2841 -0.9530
   44MOL    H9113937   3.722   4.867   6.012  1.1043  0.2414  0.2777
   44MOL    H9213938   3.887   4.551   6.162 -2.3614 -1.5081  1.1069
   44MOL    H9313939   3.879   4.355   5.782 -0.6642 -0.1522  0.0668
   44MOL    H9413940   3.786   4.557   5.672 -3.1062 -0.2484  1.2266
   44MOL    H9513941   3.752   4.755   5.798  0.1480 -0.9318 -0.6361
   44MOL    H9613942   3.709   4.678   6.257 -4.3295  0.1624  1.1324
   44MOL    H9713943   3.665   4.845   6.255  0.7708 -0.7895  0.7376
   44MOL    C9813944   3.519   4.740   6.150  0.3230 -0.8330  0.4338
   44MOL    C9913945   3.495   4.628   6.048 -0.4396 -0.0518  0.0990
   44MOL   C10013946   3.430   4.653   5.925 -0.1590  0.4496 -0.0459
   44MOL   C10113947   3.414   4.553   5.831 -0.1189  0.5754  0.4405
   44MOL  Cl10213948   3.326   4.588   5.693  0.4220 -0.4560  0.1585
   44MOL   C10313949   3.457   4.418   5.861  0.7932  0.5310 -0.0387
   44MOL   C10413950   3.521   4.392   5.982 -0.2527  0.3845 -0.1388
   44MOL   C10513951   3.539   4.502   6.072  0.1656  0.2670  0.0928
   44MOL   C10613952   3.429   4.722   6.275 -0.1982 -0.0757  0.0915
   44MOL   H10713953   3.490   4.832   6.100 -0.4916 -0.1957  2.0282
   44MOL   H10813954   3.398   4.752   5.897  2.7921  1.7103  0.8534
   44MOL   H10913955   3.441   4.339   5.789  0.9692  0.7551 -0.3280
   44MOL   H11013956   3.553   4.296   6.022 -1.0712  0.3582  0.4705
   44MOL   H11113957   3.578   4.486   6.171  1.1480 -1.0807 -0.5105
   44MOL   H11213958   3.426   4.615   6.296 -0.0444 -0.1745 -0.3932
   44MOL   H11313959   3.485   4.771   6.355  0.1402 -1.8073  0.9338
   44MOL   C11413960   3.290   4.784   6.273  0.4959 -0.4502  0.2016
   44MOL   C11513961   3.198   4.723   6.170 -0.1778  0.1028 -0.1032
   44MOL   C11613962   3.179   4.584   6.174 -0.2470 -0.6517 -0.6922
   44MOL   C11713963   3.105   4.526   6.070 -1.1180  0.2232 -0.4101
   44MOL  Cl11813964   3.071   4.356   6.088 -0.3759 -0.3961 -0.2111
   44MOL   C11913965   3.056   4.597   5.958  0.2149 -0.1983  0.4963
   44MOL   C12013966   3.067   4.740   5.960 -0.7733  0.8827  0.8964
   44MOL   C12113967   3.138   4.803   6.065 -0.6761 -0.0137  0.1345
   44MOL   C12213968   3.222   4.790   6.410  0.1069 -0.5590 -0.0338
   44MOL   H12313969   3.295   4.889   6.244  0.8760 -0.3834  0.5024
   44MOL   H12413970   3.221   4.522   6.252  0.7938 -0.2618 -0.9295
   44MOL   H12513971   3.001   4.544   5.882 -0.9613  0.1744  1.0813
   44MOL   H12613972   3.024   4.791   5.875 -0.6940  0.4640  0.6034
   44MOL   H12713973   3.152   4.910   6.065 -3.0019  0.3305  2.0090
   44MOL   H12813974   3.130   4.848   6.398  0.0598 -0.1192  2.3487
   44MOL   H12913975   3.192   4.691   6.443 -1.1186 -0.2887 -0.2807
   44MOL   C13013976   3.302   4.859   6.515 -0.1523  0.0828  0.0921
   44MOL   C13113977   3.350   5.004   6.483  0.1102 -0.4952  0.2500
   44MOL   C13213978   3.490   5.021   6.480  0.4040  0.0925  0.5775
   44MOL   C13313979   3.551   5.144   6.465  0.2577  0.2221  0.6711
   44MOL  Cl13413980   3.719   5.153   6.456 -0.0865  0.1713  0.2996
   44MOL   C13513981   3.464   5.258   6.457  0.0716  0.7767  0.0458
   44MOL   C13613982   3.323   5.246   6.468  0.6004  0.3297 -0.2019
   44MOL   C13713983   3.264   5.118   6.477  0.2169 -0.8093  0.0830
   44MOL   C13813984   3.229   4.855   6.648  0.0896  0.0087  0.3669
   44MOL   H13913985   3.389   4.798   6.539 -0.5388  0.1637  1.8065
   44MOL   H14013986   3.561   4.941   6.493  0.0801 -0.6102 -1.7705
   44MOL   H14113987   3.510   5.356   6.452 -0.7354  1.1907  0.6792
   44MOL   H14213988   3.260   5.334   6.458  0.6111  0.3632  0.0219
   44MOL   H14313989   3.157   5.107   6.485 -0.1074  0.4708 -2.0705
   44MOL   H14413990   3.140   4.916   6.633 -0.9262 -1.5846 -0.1537
   44MOL   H14513991   3.190   4.756   6.672  0.3257  0.1964  1.5630
   44MOL   C14613992   3.306   4.919   6.771  0.2475  0.6214  0.1641
   44MOL   C14713993   3.208   4.935   6.892 -0.4647 -0.6213 -0.1046
   44MOL   C14813994   3.150   4.830   6.957 -0.0666  0.1001  0.1425
   44MOL   C14913995   3.066   4.854   7.066 -0.2523 -0.3933 -0.1979
   44MOL  Cl15013996   2.988   4.716   7.134  0.3562 -0.0177 -0.0296
   44MOL   C15113997   3.045   4.979   7.124 -0.1068  0.1040  0.4687
   44MOL   C15213998   3.118   5.082   7.068  0.0651  0.0071  0.4826
   44MOL   C15313999   3.192   5.067   6.951 -0.4159  0.3756 -0.8384
   44MOL   C15414000   3.426   4.834   6.816  0.6440 -0.6214 -0.3256
   44MOL   H15514001   3.336   5.017   6.737  0.2653 -0.0328 -1.7809
   44MOL   H15614002   3.156   4.728   6.922 -1.2661 -0.7166  2.2256
   44MOL   H15714003   2.983   5.001   7.209 -1.8263 -1.2273 -0.4131
   44MOL   H15814004   3.106   5.183   7.104  0.8298  0.3529 -0.2198
   44MOL   H15914005   3.234   5.156   6.907 -2.3778  1.9850  0.4386
   44MOL   H16014006   3.394   4.751   6.879  0.1776  0.3263  0.6946
   44MOL   H16114007   3.481   4.795   6.730 -0.2267  0.4457 -1.3857
   44MOL   C16214008   3.527   4.916   6.896 -0.3561  0.1603 -0.6779
   44MOL   C16314009   3.615   4.815   6.972  0.0664 -0.4864  0.5163
   44MOL   C16414010   3.705   4.733   6.905  0.0222  0.1748  0.1532
   44MOL   C16514011   3.770   4.632   6.967 -0.1290 -0.2541 -0.9568
   44MOL  Cl16614012   3.869   4.521   6.883 -0.1374  0.2449 -0.1745
   44MOL   C16714013   3.757   4.617   7.104  0.7110  0.3734 -0.6858
   44MOL   C16814014   3.667   4.694   7.180  0.1249 -0.5503  0.2685
   44MOL   C16914015   3.601   4.798   7.110  0.5356 -0.0546 -0.5006
   44MOL   C17014016   3.617   5.009   6.810  0.1757 -0.2453  0.5939
   44MOL   H17114017   3.490   4.980   6.976  0.0452 -2.4292  1.6611
   44MOL   H17214018   3.720   4.751   6.800 -2.5189  0.8339 -0.1423
   44MOL   H17314019   3.823   4.551   7.159 -1.8821 -0.3292  1.6949
   44MOL   H17414020   3.657   4.683   7.287 -1.7445  1.8173  0.3731
   44MOL   H17514021   3.548   4.865   7.177 -0.5843  0.7968 -2.1966
   44MOL   H17614022   3.663   4.955   6.727  0.0052  1.0219 -0.3321
   44MOL   H17714023   3.548   5.064   6.746  0.6030 -1.0735 -0.6151
   44MOL   C17814024   3.709   5.102   6.900 -0.2486  0.7526 -0.3794
   44MOL   C17914025   3.857   5.102   6.861 -0.1278  0.2940 -0.2444
   44MOL   C18014026   3.945   5.014   6.929  0.3622  0.0255 -0.1729
   44MOL   C18114027   4.082   5.014   6.895  0.6415 -0.5821  0.4123
   44MOL  Cl18214028   4.190   4.894   6.962  0.2973  0.0896 -0.0393
   44MOL   C18314029   4.129   5.107   6.803  0.3427 -0.5195  0.5644
   44MOL   C18414030   4.037   5.208   6.749 -0.7760  0.1748  0.2861
   44MOL   C18514031   3.905   5.200   6.767  1.0438  0.5924 -0.4428
   44MOL   C18614032   3.640   5.237   6.907 -0.5473 -0.7042  0.4352
   44MOL   H18714033   3.713   5.072   7.005  0.1053  2.6161  0.1443
   44MOL   H18814034   3.898   4.949   7.002 -2.6119  0.4269 -1.6854
   44MOL   H18914035   4.234   5.097   6.781  0.3027 -2.0985  1.0477
   44MOL   H19014036   4.066   5.285   6.679 -0.4829 -0.4646 -0.2929
   44MOL   H19114037   3.845   5.280   6.726 -0.0013  0.4158  0.7154
   44MOL   H19214038   3.643   5.277   6.805 -0.1377 -1.0384  0.3137
   44MOL   H19314039   3.539   5.223   6.945 -1.2125  2.2108 -0.1552
   44MOL   C19414040   3.712   5.338   6.995 -0.4961  0.3169  0.4654
   44MOL   C19514041   3.637   5.476   6.973  0.5465  0.0860  0.6930
   44MOL   C19614042   3.715   5.590   6.940 -1.0303 -0.3163  0.3057
   44MOL   C19714043   3.648   5.716   6.917 -0.1196 -0.9013 -0.6813
   44MOL  Cl19814044   3.740   5.856   6.875  0.4443 -0.2327  0.0678
   44MOL   C19914045   3.507   5.726   6.935 -0.0646  0.6672 -0.0170
   44MOL   C20014046   3.431   5.610   6.969 -0.3293 -0.2413  0.1204
   44MOL   C20114047   3.497   5.485   6.990  0.1049  0.9679  0.3144
   44MOL   C20214048   3.719   5.295   7.145 -0.3400  0.1397  0.1813
   44MOL   H20314049   3.813   5.345   6.953 -1.0660  0.4083 -0.8943
   44MOL   H20414050   3.822   5.578   6.935 -1.1970 -1.0817 -3.5314
   44MOL   H20514051   3.459   5.821   6.917 -0.6476 -0.0385 -2.2832
   44MOL   H20614052   3.324   5.610   6.983 -0.3987  1.3801 -0.2577
   44MOL   H20714053   3.437   5.398   7.011  0.7718  0.2616 -0.6498
   44MOL   H20814054   3.695   5.392   7.190  0.9771 -0.5396  2.4029
   44MOL   H20914055   3.637   5.233   7.180 -1.7782  1.7126 -0.3145
   44MOL   C21014056   3.863   5.263   7.207  0.7845 -0.1256  0.0303
   44MOL   C21114057   3.978   5.346   7.152 -0.1201 -0.5827 -0.0486
   44MOL   C21214058   3.967   5.489   7.140  0.3267 -1.0136  0.1665
   44MOL   C21314059   4.067   5.558   7.077 -0.1964  0.1710 -0.0948
   44MOL  Cl21414060   4.035   5.718   7.032  0.1724 -0.2309 -0.4349
   44MOL   C21514061   4.191   5.502   7.041 -0.9787 -0.4485  0.6353
   44MOL   C21614062   4.202   5.366   7.066  0.1565 -0.3140  0.7649
   44MOL   C21714063   4.098   5.287   7.120  0.3711  0.1316  0.5813
   44MOL   C21814064   3.864   5.272   7.363 -0.1860  0.5432  0.3141
   44MOL   H21914065   3.892   5.163   7.177 -0.3628 -1.4911  3.2760
   44MOL   H22014066   3.878   5.541   7.173  0.6784  0.1638 -0.7246
   44MOL   H22114067   4.270   5.565   7.002 -1.1416 -1.2874 -1.0799
   44MOL   H22214068   4.296   5.320   7.039  1.0466  0.2516  2.7510
   44MOL   H22314069   4.123   5.185   7.143  2.8467  0.6360  0.2864
   44MOL   H22414070   3.951   5.328   7.398  1.3669 -2.4148  1.2998
   44MOL   H22514071   3.779   5.337   7.382 -1.9915 -1.0869 -1.9461
   44MOL   C22614072   3.846   5.131   7.436 -0.0681  0.1650 -0.3551
   44MOL   C22714073   3.967   5.047   7.399  0.0480  0.2637 -0.2213
   44MOL   C22814074   3.953   4.921   7.337 -1.1905 -0.1058 -0.1064
   44MOL   C22914075   4.067   4.836   7.312 -0.2456 -0.6295  0.0851
   44MOL  Cl23014076   4.060   4.673   7.248 -0.1675 -0.2793 -0.0121
   44MOL   C23114077   4.192   4.882   7.353 -0.4090  0.2453  0.2758
   44MOL   C23214078   4.207   5.005   7.422 -0.1300  0.6504  0.3323
   44MOL   C23314079   4.093   5.092   7.438 -0.5794  0.2837  0.3838
   44MOL   C23414080   3.847   5.141   7.587  0.0045  0.4363  0.7605
   44MOL   H23514081   3.758   5.090   7.387  0.4479  0.0044 -1.1676
   44MOL   H23614082   3.856   4.891   7.301 -1.4399  0.6434 -0.0625
   44MOL   H23714083   4.277   4.817   7.337 -0.9423 -0.9490  2.1451
   44MOL   H23814084   4.309   5.026   7.454 -0.1950  1.2552  0.1555
   44MOL   H23914085   4.109   5.186   7.489  0.0821 -0.0890  0.8775
   44MOL   H24014086   3.890   5.051   7.629  0.1032  1.5006  3.0044
   44MOL   H24114087   3.900   5.226   7.631  1.0211  0.1646  0.0737
   44MOL   C24214088   3.704   5.142   7.642  0.3976 -0.5186 -0.4719
   44MOL   C24314089   3.634   5.013   7.630 -0.3008 -0.2911 -0.1514
   44MOL   C24414090   3.520   4.998   7.555 -0.1468  0.3283  0.5585
   44MOL   C24514091   3.460   4.871   7.545  0.4986  0.1172 -0.3897
   44MOL  Cl24614092   3.310   4.855   7.462 -0.3350 -0.1091  0.5952
   44MOL   C24714093   3.511   4.755   7.596 -0.3523  0.4917  0.0558
   44MOL   C24814094   3.630   4.766   7.674 -0.0272 -0.1909  0.5698
   44MOL   C24914095   3.689   4.893   7.699  0.2154 -0.7338  0.0210
   44MOL   C25014096   3.697   5.193   7.790 -0.4962  0.7045  0.7218
   44MOL   H25114097   3.654   5.222   7.586  0.3007 -0.9125 -0.9496
   44MOL   H25214098   3.469   5.082   7.509  0.1134 -0.0740 -0.4697
   44MOL   H25314099   3.465   4.660   7.575 -0.6211  1.1848 -2.6835
   44MOL   H25414100   3.666   4.679   7.727  1.0854  0.2914  0.5970
   44MOL   H25514101   3.779   4.904   7.756  0.3224  0.7694 -0.4063
   44MOL   H25614102   3.760   5.135   7.858 -0.8696 -1.0725 -0.4403
   44MOL   H25714103   3.735   5.295   7.783 -2.0443  1.1201 -2.3345
   44MOL   C25814104   3.563   5.195   7.866  0.0579  0.0320  0.0152
   44MOL   C25914105   3.591   5.222   8.014  0.2812 -0.0447  0.7105
   44MOL   C26014106   3.583   5.120   8.118  0.1472 -0.6444 -0.2756
   44MOL   C26114107   3.631   5.153   8.247  0.5302  0.0111 -0.8243
   44MOL  Cl26214108   3.625   5.033   8.371  0.2715  0.0553  0.1802
   44MOL   C26314109   3.686   5.279   8.281  0.4360 -0.9985 -0.1414
   44MOL   C26414110   3.692   5.379   8.179  0.4015 -0.2317  0.6247
   44MOL   C26514111   3.632   5.352   8.055  0.3540  0.8328  0.3244
   44MOL   C26614112   3.454   5.288   7.812  0.8099 -0.1698  0.3041
   44MOL   H26714113   3.533   5.091   7.867  0.2217 -0.0496 -1.5928
   44MOL   H26814114   3.546   5.024   8.086 -0.6427 -0.8443  1.1635
   44MOL   H26914115   3.731   5.299   8.378  2.5755  0.0976 -1.3235
   44MOL   H27014116   3.742   5.471   8.205 -0.9288  0.0455  2.2760
   44MOL   H27114117   3.644   5.433   7.984 -1.7611  0.4425 -0.5159
   44MOL   H27214118   3.482   5.392   7.801  2.8546 -0.6310  0.9346
   44MOL   H27314119   3.459   5.253   7.708  3.0472  1.2720 -0.1075
   44MOL   C27414120   3.314   5.259   7.879  0.0109 -0.1250 -0.0420
   44MOL   C27514121   3.233   5.389   7.892 -0.9100  0.3683  0.1456
   44MOL   C27614122   3.206   5.436   8.025 -0.7329  0.2517  0.4304
   44MOL   C27714123   3.130   5.548   8.043  0.4741  0.3621  0.1975
   44MOL  Cl27814124   3.094   5.604   8.208  0.1958  0.0832 -0.4735
   44MOL   C27914125   3.092   5.626   7.932  0.3284  0.6797  0.1894
   44MOL   C28014126   3.119   5.586   7.804  0.1373 -0.3701 -0.0632
   44MOL   C28114127   3.188   5.464   7.781  0.2577 -0.6271 -0.9678
   44MOL   C28214128   3.235   5.151   7.802 -0.0504  0.6009  0.2058
   44MOL   H28314129   3.323   5.229   7.984 -2.5151  2.3325  0.9321
   44MOL   H28414130   3.248   5.396   8.116 -1.3600  0.7549  0.9414
   44MOL   H28514131   3.038   5.716   7.959  1.3409  1.0860  0.9057
   44MOL   H28614132   3.080   5.638   7.718 -0.7909  1.7151  1.5643
   44MOL   H28714133   3.184   5.418   7.684  1.7316  0.3016 -1.4810
   44MOL   H28814134   3.189   5.196   7.715  0.7036  2.2869  0.6551
   44MOL   H28914135   3.304   5.086   7.748  0.1310  2.1297 -1.4227
   44MOL   C29014136   3.142   5.055   7.890 -0.3148  0.2979 -0.0247
   44MOL   C29114137   3.225   4.989   8.003  0.8345  0.1010  0.4362
   44MOL   C29214138   3.312   4.882   7.967  0.4182 -0.6168  0.2207
   44MOL   C29314139   3.391   4.816   8.064  0.6219  0.0998  0.8404
   44MOL  Cl29414140   3.499   4.691   8.025  0.1791 -0.3880  0.3024
   44MOL   C29514141   3.393   4.863   8.201  0.0533  0.4549 -0.1604
   44MOL   C29614142   3.301   4.966   8.237  0.5126 -0.0374  0.4372
   44MOL   C29714143   3.222   5.033   8.138  0.7851  0.0215  0.2122
   44MOL   C29814144   3.016   5.123   7.934 -0.1136  0.0543 -0.1942
   44MOL   H29914145   3.118   4.967   7.830 -2.2566  0.8225 -0.0472
   44MOL   H30014146   3.312   4.858   7.861  0.0183  0.4212 -0.0189
   44MOL   H30114147   3.452   4.825   8.283 -0.1680  0.4811  0.0144
   44MOL   H30214148   3.298   4.996   8.341  1.0146  2.9778 -0.3747
   44MOL   H30314149   3.155   5.112   8.170 -1.0067 -1.1831 -0.4997
   44MOL   H30414150   3.040   5.214   7.990  2.0697 -0.2704 -0.5488
   44MOL   H30514151   2.958   5.163   7.850 -0.2473 -1.2431 -0.7253
   44MOL   C30614152   2.917   5.030   8.008  0.1212 -0.0501  0.5679
   44MOL   C30714153   2.794   5.112   8.044 -0.1322  0.3713 -0.7477
   44MOL   C30814154   2.800   5.176   8.177  0.3145  0.3577 -0.6465
   44MOL   C30914155   2.697   5.274   8.213 -0.3841  0.1965 -0.9165
   44MOL  Cl31014156   2.711   5.364   8.359 -0.1745  0.3093 -0.2770
   44MOL   C31114157   2.585   5.281   8.131 -0.1548  0.6328  0.2859
   44MOL   C31214158   2.585   5.219   8.001  0.4257  0.5781 -0.4952
   44MOL   C31314159   2.686   5.127   7.958  0.4227  0.0146 -0.5275
   44MOL   C31414160   2.883   4.903   7.930  0.1767  0.3103  0.6952
   44MOL   H31514161   2.961   5.006   8.105 -1.6899  1.7627  1.8894
   44MOL   H31614162   2.892   5.177   8.234  0.4127  2.9854 -0.7857
   44MOL   H31714163   2.512   5.356   8.155 -0.2209  1.1111 -1.3143
   44MOL   H31814164   2.510   5.235   7.925 -1.0218  0.1025  0.8038
   44MOL   H31914165   2.691   5.089   7.857 -2.3519  2.1805 -1.5516
   44MOL   H32014166   2.858   4.933   7.829 -2.4575 -0.5985  1.0469
   44MOL   H32114167   2.969   4.836   7.928  1.7099  2.2713 -0.2499
   44MOL   H32214168   2.804   4.838   7.967  0.8522 -0.9540 -0.0137
   45MOL     C114169   0.698   5.837   4.514 -0.4820  0.0731 -0.0226
   45MOL     C214170   0.660   5.957   4.429 -0.5631  0.9529  0.5513
   45MOL     C314171   0.711   6.084   4.463  0.2317  0.1982 -0.1065
   45MOL     C414172   0.672   6.201   4.394 -0.1762  0.0013 -0.0914
   45MOL    Cl514173   0.731   6.352   4.444  0.1427 -0.3595 -0.2206
   45MOL     C614174   0.593   6.188   4.277  0.0671 -0.2940 -0.6082
   45MOL     C714175   0.538   6.062   4.242 -0.1284 -0.3167  0.4368
   45MOL     C814176   0.563   5.946   4.320 -0.2767  0.1955 -0.3541
   45MOL     C914177   0.668   5.848   4.667 -1.2898  0.4781 -0.2389
   45MOL    H1014178   0.807   5.837   4.508 -0.3362 -0.4938  2.1751
   45MOL    H1114179   0.770   6.104   4.552 -0.5324  2.3024 -0.0257
   45MOL    H1214180   0.565   6.269   4.212 -3.2020 -2.9669 -2.6750
   45MOL    H1314181   0.478   6.062   4.152  1.5526 -0.8907 -0.6871
   45MOL    H1414182   0.514   5.854   4.295  1.1322 -0.7229  0.2143
   45MOL    H1514183   0.709   5.942   4.704 -1.3879  0.7175 -0.7319
   45MOL    H1614184   0.560   5.856   4.680 -1.5498 -1.1750 -1.2856
   45MOL    H1714185   0.648   5.744   4.488  1.1964 -0.2492 -2.2713
   45MOL    C1814186   0.714   5.741   4.761 -0.0736  0.4026  0.2720
   45MOL    C1914187   0.708   5.783   4.906  1.0497  0.3680  0.2253
   45MOL    C2014188   0.604   5.739   4.997 -0.3198 -0.0957  0.1792
   45MOL    C2114189   0.601   5.786   5.135 -0.3323  0.1593  0.5786
   45MOL   Cl2214190   0.475   5.738   5.239  0.0439 -0.2421  0.5341
   45MOL    C2314191   0.705   5.871   5.186  0.3438  1.4045  0.6241
   45MOL    C2414192   0.807   5.914   5.101  0.1492  0.2454 -0.4676
   45MOL    C2514193   0.810   5.867   4.967 -0.4600  0.2536  0.5273
   45MOL    C2614194   0.658   5.596   4.730  0.9912 -0.4180 -0.4479
   45MOL    H2714195   0.822   5.744   4.746 -0.4010 -0.1770 -2.3329
   45MOL    H2814196   0.520   5.683   4.957  0.4935 -0.7128 -0.6809
   45MOL    H2914197   0.696   5.893   5.292 -0.7535 -2.4295  1.3887
   45MOL    H3014198   0.885   5.985   5.127 -0.0990 -0.0295  1.0563
   45MOL    H3114199   0.893   5.902   4.908 -1.1755  1.4665  0.2175
   45MOL    H3214200   0.555   5.605   4.764  1.0041 -1.0204 -0.2398
   45MOL    H3314201   0.648   5.585   4.622 -1.7349 -1.1002 -0.1510
   45MOL    C3414202   0.729   5.472   4.799  0.4784  0.1774  0.0835
   45MOL    C3514203   0.624   5.361   4.823 -0.5860  0.0986  0.1005
   45MOL    C3614204   0.593   5.323   4.955  0.6336 -0.6657  0.3454
   45MOL    C3714205   0.502   5.218   4.982 -0.3206 -0.1137  1.0473
   45MOL   Cl3814206   0.460   5.183   5.144  0.0826 -0.1401 -0.0555
   45MOL    C3914207   0.466   5.133   4.877 -0.1292 -0.3955 -0.5967
   45MOL    C4014208   0.498   5.167   4.742  0.3500 -0.1909 -0.3877
   45MOL    C4114209   0.572   5.284   4.719  0.0953 -0.0915  0.0759
   45MOL    C4214210   0.851   5.419   4.722  0.1227 -0.0665 -0.4409
   45MOL    H4314211   0.773   5.506   4.893 -1.3042  0.6734  0.7725
   45MOL    H4414212   0.619   5.370   5.049 -1.9089 -2.1665  1.8740
   45MOL    H4514213   0.398   5.052   4.898  1.1722 -0.4547  3.8669
   45MOL    H4614214   0.465   5.104   4.660 -1.2489 -0.2718  0.2944
   45MOL    H4714215   0.594   5.306   4.616 -2.0533  0.6195 -0.2535
   45MOL    H4814216   0.821   5.349   4.644  1.3467 -1.7448  0.5587
   45MOL    H4914217   0.896   5.507   4.676 -2.8172 -0.1971 -3.8052
   45MOL    C5014218   0.967   5.363   4.802 -0.3050 -0.7786  0.1901
   45MOL    C5114219   0.914   5.253   4.898 -0.2062 -0.6441 -0.3677
   45MOL    C5214220   0.865   5.135   4.846 -0.3643  0.5625 -0.3671
   45MOL    C5314221   0.815   5.035   4.932 -0.2827 -0.3982 -0.1831
   45MOL   Cl5414222   0.754   4.893   4.862  0.2046 -0.2214 -0.2056
   45MOL    C5514223   0.819   5.056   5.071  0.0973  0.6476  0.2808
   45MOL    C5614224   0.872   5.173   5.128  0.6428 -0.4184  0.3924
   45MOL    C5714225   0.925   5.270   5.039  0.3363 -0.1287  0.4345
   45MOL    C5814226   1.085   5.310   4.718  0.5524  0.3545 -0.0648
   45MOL    H5914227   1.001   5.446   4.863 -0.4827 -1.6568  1.5085
   45MOL    H6014228   0.856   5.132   4.738  0.4191 -2.0942 -0.3899
   45MOL    H6114229   0.787   4.979   5.140 -0.4658 -1.2865 -2.0902
   45MOL    H6214230   0.875   5.187   5.235 -0.4930  0.8875  0.2693
   45MOL    H6314231   0.949   5.371   5.070 -1.2820  0.0222  1.2589
   45MOL    H6414232   1.054   5.240   4.641  0.7286 -0.5975  0.7199
   45MOL    H6514233   1.123   5.401   4.670 -0.3990  0.6844 -0.2032
   45MOL    C6614234   1.190   5.228   4.804  0.6215  0.3046  0.7113
   45MOL    C6714235   1.287   5.143   4.724  0.1793 -0.1880 -0.6410
   45MOL    C6814236   1.275   5.001   4.713 -0.2265 -0.0399  0.3201
   45MOL    C6914237   1.370   4.928   4.646  0.0067 -0.3108  0.3412
   45MOL   Cl7014238   1.343   4.763   4.620  0.1946  0.2080 -0.7466
   45MOL    C7114239   1.486   4.983   4.594 -0.1593  0.3035  0.0131
   45MOL    C7214240   1.493   5.127   4.603  0.3723  0.4742 -0.1688
   45MOL    C7314241   1.395   5.205   4.662 -0.2613 -0.6345 -0.3153
   45MOL    C7414242   1.263   5.302   4.927  0.6937 -0.9093 -0.4985
   45MOL    H7514243   1.123   5.154   4.846 -2.7829  1.4134 -2.5622
   45MOL    H7614244   1.186   4.954   4.751  0.8510 -2.0555  0.3970
   45MOL    H7714245   1.552   4.927   4.530 -1.0222  0.1611 -0.7638
   45MOL    H7814246   1.582   5.180   4.572  0.5280  1.6570  2.1454
   45MOL    H7914247   1.402   5.313   4.661  0.6108 -0.6883 -0.2806
   45MOL    H8014248   1.324   5.383   4.887  0.2334 -0.3239 -0.0335
   45MOL    H8114249   1.191   5.354   4.992  0.5212  1.2550 -2.3379
   45MOL    C8214250   1.352   5.216   5.015  0.0317  0.1463 -0.1177
   45MOL    C8314251   1.465   5.290   5.087 -0.0255  0.2037 -0.6758
   45MOL    C8414252   1.434   5.409   5.150 -0.0060  0.0204 -0.5576
   45MOL    C8514253   1.528   5.486   5.221  0.1990  0.4825  0.0749
   45MOL   Cl8614254   1.487   5.641   5.279  0.0304  0.0109  0.4039
   45MOL    C8714255   1.662   5.437   5.216  0.0765  0.7895 -0.7408
   45MOL    C8814256   1.697   5.317   5.161  0.1713  0.4761  0.1989
   45MOL    C8914257   1.598   5.242   5.095 -0.4076 -0.1402 -0.0449
   45MOL    C9014258   1.265   5.135   5.104  0.0716 -0.4906 -1.1910
   45MOL    H9114259   1.409   5.153   4.946  1.5102  0.5190  0.7370
   45MOL    H9214260   1.340   5.462   5.145  0.8060  1.4783 -0.4842
   45MOL    H9314261   1.736   5.509   5.248  0.2166  0.4175 -0.2217
   45MOL    H9414262   1.798   5.281   5.158  0.2290  0.7377 -1.2966
   45MOL    H9514263   1.628   5.147   5.053 -2.2197 -0.3667 -0.8886
   45MOL    H9614264   1.219   5.201   5.178 -0.5762 -0.0599 -1.9743
   45MOL    H9714265   1.177   5.093   5.054  0.0946 -2.1800  0.1171
   45MOL    C9814266   1.332   5.022   5.184  1.1356  0.0177 -0.1710
   45MOL    C9914267   1.234   4.972   5.294 -0.4833 -0.4420  0.4452
   45MOL   C10014268   1.126   4.886   5.257  1.2858 -0.0407  0.3643
   45MOL   C10114269   1.034   4.851   5.355  0.5128 -0.2360 -0.5613
   45MOL  Cl10214270   0.905   4.747   5.314  0.5678 -0.4215 -0.2406
   45MOL   C10314271   1.044   4.900   5.486 -0.1127  0.1890 -0.4272
   45MOL   C10414272   1.151   4.986   5.522  0.1534 -0.3672  0.4399
   45MOL   C10514273   1.251   5.017   5.426  0.2671 -0.4974  0.0201
   45MOL   C10614274   1.391   4.913   5.091 -0.3234  0.3193  0.1911
   45MOL   H10714275   1.410   5.065   5.247 -1.5515 -0.7512  3.8573
   45MOL   H10814276   1.106   4.855   5.155 -0.6148  1.5435  0.2354
   45MOL   H10914277   0.965   4.878   5.556  0.8004  4.0561  1.9570
   45MOL   H11014278   1.156   5.036   5.618  2.6706  0.7524 -0.2195
   45MOL   H11114279   1.339   5.073   5.455  0.2255 -0.4900  0.1326
   45MOL   H11214280   1.301   4.862   5.055 -0.1901  1.0108 -1.1688
   45MOL   H11314281   1.441   4.966   5.009  0.9282 -0.7739  0.2285
   45MOL   C11414282   1.479   4.793   5.126 -0.6823  0.1116  0.4657
   45MOL   C11514283   1.484   4.694   5.013 -0.1039 -0.2021 -0.0507
   45MOL   C11614284   1.564   4.721   4.899  0.1223 -0.0980  0.4390
   45MOL   C11714285   1.577   4.618   4.797 -0.6692 -0.5949  0.2130
   45MOL  Cl11814286   1.662   4.647   4.650  0.0929  0.4427 -0.0623
   45MOL   C11914287   1.510   4.499   4.815 -0.2835  0.0526 -0.5085
   45MOL   C12014288   1.432   4.476   4.929  0.2755  0.0256 -0.8241
   45MOL   C12114289   1.426   4.569   5.034 -0.4450 -0.4034 -0.3848
   45MOL   C12214290   1.612   4.841   5.177 -0.0713  0.3656 -0.2173
   45MOL   H12314291   1.426   4.741   5.206  0.4167 -1.4525  0.1886
   45MOL   H12414292   1.617   4.815   4.892  4.0293 -2.1937  0.4405
   45MOL   H12514293   1.524   4.427   4.736  0.4335 -0.5071  0.1167
   45MOL   H12614294   1.385   4.379   4.933  1.3662 -0.5032 -0.7662
   45MOL   H12714295   1.371   4.552   5.125  1.1068  0.1359  0.6906
   45MOL   H12814296   1.659   4.923   5.123  1.4098 -0.3144  0.0216
   45MOL   H12914297   1.592   4.881   5.276  0.7372  2.0300 -0.7020
   45MOL   C13014298   1.730   4.740   5.172 -0.1609 -0.1925  0.3384
   45MOL   C13114299   1.857   4.823   5.190 -0.4898  0.5379  0.3950
   45MOL   C13214300   1.891   4.871   5.320  0.6953  0.3220  0.4341
   45MOL   C13314301   2.015   4.928   5.350  1.0111  0.0927 -0.9379
   45MOL  Cl13414302   2.055   4.983   5.513  0.1172  0.4778  0.0405
   45MOL   C13514303   2.105   4.942   5.246 -0.9376  0.2305  0.2769
   45MOL   C13614304   2.081   4.899   5.115 -0.1532 -0.3326 -0.6910
   45MOL   C13714305   1.957   4.843   5.092  0.3325 -0.0648 -0.0795
   45MOL   C13814306   1.727   4.620   5.267 -0.4182 -0.2435 -0.8551
   45MOL   H13914307   1.732   4.698   5.072  0.4911 -1.1067  0.7249
   45MOL   H14014308   1.829   4.861   5.408  3.2551 -1.8714  2.0610
   45MOL   H14114309   2.203   4.979   5.275 -0.0579 -2.7894  1.2915
   45MOL   H14214310   2.152   4.883   5.035  2.5944  1.9850  1.2134
   45MOL   H14314311   1.935   4.811   4.991 -0.2841  2.1647 -0.6986
   45MOL   H14414312   1.753   4.646   5.369  0.9629  1.6605 -1.6560
   45MOL   H14514313   1.623   4.589   5.281 -0.3192  0.2468  1.0162
   45MOL   C14614314   1.805   4.494   5.222 -0.2153 -0.2092 -0.5128
   45MOL   C14714315   1.822   4.397   5.342 -0.0614 -0.5572  0.2772
   45MOL   C14814316   1.948   4.354   5.394  0.4816  0.3798 -0.2413
   45MOL   C14914317   1.964   4.255   5.492 -0.3150 -0.0528 -0.3122
   45MOL  Cl15014318   2.111   4.177   5.517  0.0368 -0.1201  0.4257
   45MOL   C15114319   1.845   4.212   5.560  0.2946 -0.5418  0.4794
   45MOL   C15214320   1.717   4.248   5.512  0.2484  0.1098 -0.2842
   45MOL   C15314321   1.708   4.340   5.405 -0.3037 -0.1017  0.3544
   45MOL   C15414322   1.751   4.421   5.099 -0.3498  0.2224 -0.4417
   45MOL   H15514323   1.908   4.528   5.210 -0.2587 -0.0712 -0.4949
   45MOL   H15614324   2.034   4.400   5.349  1.3769  0.0401  1.0871
   45MOL   H15714325   1.841   4.132   5.632 -0.2096  1.2025  2.4660
   45MOL   H15814326   1.628   4.201   5.551 -0.0510 -1.3718 -2.6637
   45MOL   H15914327   1.610   4.374   5.374  0.2004  1.4823  0.4197
   45MOL   H16014328   1.652   4.380   5.118 -0.5086  1.0397  0.4764
   45MOL   H16114329   1.723   4.491   5.020 -3.4945 -2.4379 -1.8253
   45MOL   C16214330   1.840   4.300   5.045  0.0041 -0.2276  0.4682
   45MOL   C16314331   1.753   4.206   4.958 -0.4597 -0.1148 -0.5387
   45MOL   C16414332   1.716   4.079   4.995 -0.5367 -1.0254  0.3289
   45MOL   C16514333   1.663   3.992   4.894 -0.5494 -0.9738 -0.4639
   45MOL  Cl16614334   1.622   3.827   4.949 -0.2499 -0.2599 -0.1436
   45MOL   C16714335   1.628   4.041   4.768  1.5947  0.0030 -0.4225
   45MOL   C16814336   1.660   4.169   4.729 -0.7310 -0.3171  0.6790
   45MOL   C16914337   1.725   4.254   4.824 -0.2278  0.3754 -0.0830
   45MOL   C17014338   1.972   4.342   4.977 -0.1562  0.1176  0.1458
   45MOL   H17114339   1.862   4.250   5.140  1.1340  0.1221  0.3943
   45MOL   H17214340   1.750   4.032   5.086  2.2277 -2.6210 -1.4328
   45MOL   H17314341   1.592   3.968   4.697  0.2686 -0.9006  1.1519
   45MOL   H17414342   1.636   4.204   4.630 -2.1621  0.8388  1.4142
   45MOL   H17514343   1.751   4.354   4.793  0.0456  0.5864  0.8178
   45MOL   H17614344   1.940   4.405   4.894  2.1610  2.6298  1.0807
   45MOL   H17714345   2.043   4.398   5.038 -0.1572  1.0986 -0.7310
   45MOL   C17814346   2.060   4.230   4.922  0.2990  0.2625 -0.5174
   45MOL   C17914347   2.155   4.285   4.811  0.6393  0.0702 -0.0128
   45MOL   C18014348   2.269   4.368   4.829  0.4105  0.2429  0.1243
   45MOL   C18114349   2.340   4.424   4.719 -0.2700  0.0822 -0.5496
   45MOL  Cl18214350   2.484   4.520   4.752  0.0449 -0.3326 -0.2165
   45MOL   C18314351   2.299   4.398   4.588  0.2718  0.2111 -0.7593
   45MOL   C18414352   2.180   4.320   4.566  0.2640 -0.9280  0.0492
   45MOL   C18514353   2.117   4.259   4.676 -0.4820  0.0023  0.0133
   45MOL   C18614354   2.141   4.157   5.031 -0.0481  0.5894  0.1540
   45MOL   H18714355   1.991   4.161   4.872  0.1821  0.0280 -0.0301
   45MOL   H18814356   2.291   4.386   4.933  0.0377 -2.7616  0.7601
   45MOL   H18914357   2.362   4.439   4.511 -0.3225 -1.2294 -2.0329
   45MOL   H19014358   2.145   4.300   4.466  1.5764 -0.2192 -0.5680
   45MOL   H19114359   2.024   4.207   4.653 -0.9691  1.9512 -2.6991
   45MOL   H19214360   2.230   4.210   5.064 -0.0837  1.4902 -1.1483
   45MOL   H19314361   2.074   4.153   5.117  2.4168  1.1580  2.1378
   45MOL   C19414362   2.176   4.011   4.996 -0.2885 -0.7690  0.6147
   45MOL   C19514363   2.302   4.008   4.911 -0.4021  0.0484 -0.3907
   45MOL   C19614364   2.428   4.056   4.959 -0.0910 -0.0846  0.9628
   45MOL   C19714365   2.548   4.034   4.885 -0.4201  0.5586 -0.5660
   45MOL  Cl19814366   2.705   4.093   4.942  0.7069  0.3041  0.3682
   45MOL   C19914367   2.543   3.975   4.759  0.5615  0.3157  0.4265
   45MOL   C20014368   2.423   3.925   4.707  0.0670  0.3927 -0.0338
   45MOL   C20114369   2.304   3.947   4.783 -0.4290  0.3795  0.4793
   45MOL   C20214370   2.214   3.933   5.126 -0.2912  0.4317  0.4699
   45MOL   H20314371   2.100   3.964   4.934  0.9022 -2.3293  0.3140
   45MOL   H20414372   2.426   4.107   5.054 -1.7454  0.7825  0.4920
   45MOL   H20514373   2.636   3.955   4.708  1.1446 -1.6960  2.1955
   45MOL   H20614374   2.425   3.871   4.614 -1.1305  1.2567 -0.5665
   45MOL   H20714375   2.219   3.890   4.747  1.2273 -0.9104 -1.4708
   45MOL   H20814376   2.299   3.871   5.098 -0.6186  0.0244  0.3811
   45MOL   H20914377   2.258   4.003   5.198  1.4250 -0.2269  0.0875
   45MOL   C21014378   2.104   3.864   5.212  0.3907 -0.2577  0.2743
   45MOL   C21114379   2.053   3.729   5.162  0.4049  0.5024 -0.0239
   45MOL   C21214380   2.133   3.649   5.077 -0.0599  0.2689 -0.2598
   45MOL   C21314381   2.081   3.530   5.024 -0.3247  1.0001  0.7676
   45MOL  Cl21414382   2.180   3.450   4.908  0.1499  0.2998 -0.7563
   45MOL   C21514383   1.950   3.480   5.052 -0.2735  0.0516 -0.1177
   45MOL   C21614384   1.875   3.561   5.136  0.6767  0.1409 -0.3917
   45MOL   C21714385   1.927   3.676   5.197  0.1849 -0.1614  0.0724
   45MOL   C21814386   2.158   3.853   5.361 -0.2692 -0.2347  0.3441
   45MOL   H21914387   2.016   3.926   5.203  0.8854  0.3178 -0.7638
   45MOL   H22014388   2.232   3.680   5.048  0.7596 -0.9477  1.1990
   45MOL   H22114389   1.903   3.391   5.012 -0.7955  0.7560 -1.1260
   45MOL   H22214390   1.778   3.539   5.178  1.4540  2.5113  2.8387
   45MOL   H22314391   1.864   3.724   5.271 -1.0337  0.6675 -1.4782
   45MOL   H22414392   2.182   3.956   5.389  0.2643 -0.6838  1.5451
   45MOL   H22514393   2.069   3.840   5.421 -0.6855 -1.6640 -0.5686
   45MOL   C22614394   2.256   3.743   5.396  0.2419 -0.4370  0.4001
   45MOL   C22714395   2.386   3.746   5.318  0.0895  0.7359  0.4785
   45MOL   C22814396   2.466   3.860   5.322 -0.0538 -0.4990 -0.4672
   45MOL   C22914397   2.599   3.854   5.269  0.1926 -0.0725  0.1542
   45MOL  Cl23014398   2.695   3.997   5.268 -0.1324 -0.0151  0.0763
   45MOL   C23114399   2.644   3.740   5.199  0.0966 -0.4983  0.5079
   45MOL   C23214400   2.557   3.630   5.184  0.6802 -0.4388 -0.1749
   45MOL   C23314401   2.434   3.636   5.253  0.1304  0.0251 -0.1140
   45MOL   C23414402   2.289   3.743   5.545  0.1318  0.3391  0.3682
   45MOL   H23514403   2.212   3.645   5.379 -0.9440  0.0901  0.3396
   45MOL   H23614404   2.429   3.951   5.366 -0.5058 -1.7638  1.8105
   45MOL   H23714405   2.746   3.731   5.165  0.7144  0.3470  2.0931
   45MOL   H23814406   2.587   3.532   5.148 -0.5544 -0.7315 -0.4149
   45MOL   H23914407   2.372   3.547   5.253 -0.4481  0.4085 -2.2841
   45MOL   H24014408   2.372   3.677   5.570 -0.2689  0.6933  2.8263
   45MOL   H24114409   2.332   3.842   5.558  0.0006  0.2951  1.2099
   45MOL   C24214410   2.178   3.707   5.646 -0.0891 -0.1627  1.1024
   45MOL   C24314411   2.099   3.585   5.604  0.4349  0.7033 -0.2466
   45MOL   C24414412   1.957   3.598   5.571 -0.2700  0.3434  0.0714
   45MOL   C24514413   1.889   3.483   5.528 -0.1891 -0.7839  0.5188
   45MOL  Cl24614414   1.722   3.493   5.468 -0.0905 -0.3217 -0.2151
   45MOL   C24714415   1.953   3.360   5.522  0.1042 -0.0938  0.6546
   45MOL   C24814416   2.086   3.346   5.550  0.1614 -0.7051 -0.2740
   45MOL   C24914417   2.160   3.460   5.582 -0.8131  0.8892 -0.2072
   45MOL   C25014418   2.251   3.701   5.784 -0.1112  0.1609  0.3198
   45MOL   H25114419   2.117   3.798   5.641 -1.2826 -0.9392  1.3807
   45MOL   H25214420   1.905   3.691   5.589 -1.8154 -0.8007  1.7321
   45MOL   H25314421   1.912   3.264   5.493  1.4508 -0.9040  1.3497
   45MOL   H25414422   2.136   3.251   5.537 -0.3877 -0.7000 -2.4764
   45MOL   H25514423   2.268   3.459   5.589 -0.8460  0.6215  0.2729
   45MOL   H25614424   2.303   3.607   5.798 -1.8234 -0.7274  0.7759
   45MOL   H25714425   2.329   3.778   5.791  0.0148  0.1650 -1.0911
   45MOL   C25814426   2.172   3.738   5.901  0.2084  0.0660  0.4688
   45MOL   C25914427   2.053   3.656   5.927 -0.8233 -0.6156 -0.6456
   45MOL   C26014428   2.053   3.517   5.939 -0.1649 -0.9302  0.0432
   45MOL   C26114429   1.938   3.436   5.944  0.2369  0.0508  0.3091
   45MOL  Cl26214430   1.945   3.261   5.943 -0.1397  0.1122  0.6848
   45MOL   C26314431   1.811   3.508   5.945 -0.0945  0.6171  0.1493
   45MOL   C26414432   1.806   3.644   5.944 -0.9325  0.4132 -0.2868
   45MOL   C26514433   1.927   3.714   5.921 -0.6906  0.4140 -0.0922
   45MOL   C26614434   2.254   3.764   6.021  0.0405 -0.1900  0.1149
   45MOL   H26714435   2.130   3.833   5.868  0.6848 -0.0578 -0.4980
   45MOL   H26814436   2.148   3.468   5.948 -0.4431 -1.3845  0.5201
   45MOL   H26914437   1.720   3.450   5.941  0.0682  0.4125 -0.7842
   45MOL   H27014438   1.710   3.693   5.938 -1.8414 -1.1143  1.3888
   45MOL   H27114439   1.912   3.819   5.901  1.0701  0.7274  0.1992
   45MOL   H27214440   2.302   3.672   6.054  0.5759 -0.1194 -0.4687
   45MOL   H27314441   2.333   3.835   5.997  0.8165 -0.5393  1.5603
   45MOL   C27414442   2.175   3.832   6.137 -1.1545  0.3768 -0.0173
   45MOL   C27514443   2.271   3.832   6.255 -0.2410  0.7079 -0.4999
   45MOL   C27614444   2.241   3.770   6.377 -0.0644  0.3604 -0.0251
   45MOL   C27714445   2.313   3.802   6.495  0.1028 -0.3499  0.9052
   45MOL  Cl27814446   2.273   3.726   6.646  0.2070  0.2869 -0.1147
   45MOL   C27914447   2.429   3.889   6.484  0.5786  0.8104  0.7319
   45MOL   C28014448   2.470   3.936   6.357  0.6175  0.3282  0.0002
   45MOL   C28114449   2.388   3.905   6.248 -0.0921 -0.2992  0.8735
   45MOL   C28214450   2.132   3.978   6.102  0.2343  0.2518 -0.2256
   45MOL   H28314451   2.081   3.782   6.161 -1.2023  0.4479 -0.0559
   45MOL   H28414452   2.164   3.695   6.389  0.8638 -0.1977  2.8189
   45MOL   H28514453   2.476   3.918   6.577  0.3330  0.9189  0.8216
   45MOL   H28614454   2.558   3.998   6.352  2.0382 -1.7214 -0.8718
   45MOL   H28714455   2.422   3.938   6.151  0.3596 -2.1682  0.3631
   45MOL   H28814456   2.199   4.058   6.134 -1.1514  1.4752 -0.3745
   45MOL   H28914457   2.119   3.993   5.995 -1.4213 -2.7010 -0.4908
   45MOL   C29014458   1.992   4.009   6.147  0.8795 -0.2359  0.0253
   45MOL   C29114459   1.979   3.995   6.296  0.1084 -1.1046  0.5791
   45MOL   C29214460   2.059   4.064   6.389 -0.0964  0.4324 -0.7507
   45MOL   C29314461   2.042   4.048   6.530 -0.0098  0.0043  0.2327
   45MOL  Cl29414462   2.133   4.142   6.632 -0.3219 -0.1677  0.2104
   45MOL   C29514463   1.946   3.960   6.582 -0.1623  0.3579 -0.4745
   45MOL   C29614464   1.880   3.876   6.489 -0.0350 -0.4368 -0.1921
   45MOL   C29714465   1.901   3.890   6.349  0.3523 -0.5979  0.2845
   45MOL   C29814466   1.933   4.151   6.094  0.0859 -0.1711 -0.8259
   45MOL   H29914467   1.928   3.936   6.096  0.5035  1.2297 -1.6405
   45MOL   H30014468   2.135   4.135   6.360 -1.8559  2.6509 -0.0148
   45MOL   H30114469   1.942   3.941   6.688 -1.2795 -1.4548 -0.8236
   45MOL   H30214470   1.818   3.801   6.535 -0.4582  1.9388  3.3172
   45MOL   H30314471   1.850   3.822   6.282 -0.0175 -1.0777  1.0399
   45MOL   H30414472   1.980   4.232   6.150  0.0964 -0.7549  0.0234
   45MOL   H30514473   1.958   4.173   5.990  0.7398 -0.4625 -0.7337
   45MOL   C30614474   1.781   4.173   6.098  0.1715  0.7758 -0.1303
   45MOL   C30714475   1.735   4.317   6.085  0.0029 -0.2274  0.2057
   45MOL   C30814476   1.620   4.355   6.150  0.9084  0.1816  0.0667
   45MOL   C30914477   1.561   4.478   6.143  0.3482 -0.1513  0.2344
   45MOL  Cl31014478   1.405   4.494   6.220  0.4610 -0.2777 -0.1903
   45MOL   C31114479   1.631   4.582   6.077  0.9963  0.2143 -0.3913
   45MOL   C31214480   1.749   4.550   6.014  0.1993 -0.7464  0.4653
   45MOL   C31314481   1.801   4.417   6.011 -0.1212 -0.1666 -0.0949
   45MOL   C31414482   1.702   4.083   6.000  0.3354  0.0989 -1.0833
   45MOL   H31514483   1.749   4.134   6.194 -1.1033  2.4088  0.1311
   45MOL   H31614484   1.566   4.276   6.200  1.5208 -0.5753 -0.4548
   45MOL   H31714485   1.592   4.682   6.073  2.6323  0.8232 -1.5920
   45MOL   H31814486   1.789   4.632   5.956 -2.0907 -0.1497 -0.3331
   45MOL   H31914487   1.898   4.402   5.966  0.6470  3.7536  0.1141
   45MOL   H32014488   1.710   3.978   6.029  1.6075  0.7822  1.1250
   45MOL   H32114489   1.597   4.108   6.018  0.3126  0.9233 -2.3258
   45MOL   H32214490   1.712   4.105   5.894 -0.5292 -1.4065 -1.5039
   46MOL     C114491   5.147   4.048   0.957 -0.4237  0.1153 -0.1400
   46MOL     C214492   5.072   4.073   0.833 -0.1521 -0.2138 -0.2132
   46MOL     C314493   5.033   3.964   0.747 -0.2139  0.4334 -0.2606
   46MOL     C414494   4.964   3.990   0.630 -0.2651 -0.3978  0.6509
   46MOL    Cl514495   4.902   3.862   0.526  0.3243 -0.1028 -0.3724
   46MOL     C614496   4.942   4.125   0.598 -0.1008  1.1042  0.1280
   46MOL     C714497   4.977   4.229   0.685 -0.4833  0.5582 -0.6102
   46MOL     C814498   5.052   4.205   0.796  0.0096 -0.3184  0.2445
   46MOL     C914499   5.077   4.098   1.086  0.2617 -0.6207 -0.6391
   46MOL    H1014500   5.237   4.111   0.960 -1.3790  1.4771  0.6376
   46MOL    H1114501   5.048   3.861   0.774  1.4876  0.6796 -0.2334
   46MOL    H1214502   4.895   4.140   0.502 -0.9780  3.5296  0.9016
   46MOL    H1314503   4.948   4.331   0.665 -1.2611  0.4537 -0.0209
   46MOL    H1414504   5.074   4.293   0.854  0.0900  0.0009 -0.2782
   46MOL    H1514505   5.147   4.095   1.168  1.4643 -0.8910 -1.6603
   46MOL    H1614506   5.058   4.206   1.078 -2.3940 -1.1798 -2.6519
   46MOL    H1714507   5.180   3.944   0.962 -1.0053 -0.1040 -0.7703
   46MOL    C1814508   4.954   4.023   1.128 -0.8342  0.4424 -0.0487
   46MOL    C1914509   4.990   3.877   1.136  0.9119 -0.1781 -0.1889
   46MOL    C2014510   5.077   3.821   1.234  0.1788  0.4313 -0.1767
   46MOL    C2114511   5.093   3.681   1.255 -0.2637 -0.3004 -0.3132
   46MOL   Cl2214512   5.190   3.621   1.387 -0.3528  0.4169  0.3349
   46MOL    C2314513   5.019   3.597   1.172 -0.0808  0.0240  0.5920
   46MOL    C2414514   4.934   3.652   1.075 -0.3075  0.3929 -0.2145
   46MOL    C2514515   4.931   3.792   1.045  0.6828 -0.4399 -0.1542
   46MOL    C2614516   4.897   4.062   1.267 -0.1606 -0.1631 -0.2618
   46MOL    H2714517   4.872   4.030   1.057 -0.2346  2.1390 -0.5903
   46MOL    H2814518   5.142   3.883   1.294  2.0180 -1.3748 -0.2133
   46MOL    H2914519   5.003   3.494   1.199 -4.2610  1.2054  3.1528
   46MOL    H3014520   4.876   3.593   1.006 -0.3147  1.0243 -0.7586
   46MOL    H3114521   4.862   3.831   0.972  0.9586 -0.9094 -0.6702
   46MOL    H3214522   4.843   3.976   1.306 -0.2584  0.4111  0.8747
   46MOL    H3314523   4.982   4.090   1.330 -0.1273 -1.1917  0.1639
   46MOL    C3414524   4.788   4.177   1.267 -0.2027  0.2314  0.7230
   46MOL    C3514525   4.698   4.157   1.144 -0.8828  0.2712 -0.0116
   46MOL    C3614526   4.599   4.060   1.141  0.0578  0.2278  0.2844
   46MOL    C3714527   4.507   4.057   1.028  0.1486  0.0607  0.0963
   46MOL   Cl3814528   4.385   3.941   1.009  0.5607  0.5798 -0.3147
   46MOL    C3914529   4.534   4.148   0.918  0.2509  0.2870 -0.1583
   46MOL    C4014530   4.646   4.227   0.923  0.7196 -0.2515 -0.5109
   46MOL    C4114531   4.715   4.246   1.040  0.3338  0.1263  0.2462
   46MOL    C4214532   4.716   4.179   1.403 -0.2231 -0.1815  0.8566
   46MOL    H4314533   4.838   4.273   1.264  0.8836 -0.3595 -0.8492
   46MOL    H4414534   4.586   3.983   1.215  0.3449  0.0460  0.1467
   46MOL    H4514535   4.465   4.130   0.837  1.2228 -0.4222 -0.8361
   46MOL    H4614536   4.677   4.284   0.837 -0.8286  1.4431  0.0320
   46MOL    H4714537   4.799   4.314   1.045  2.4120 -2.0730 -3.0854
   46MOL    H4814538   4.684   4.077   1.423  1.2148 -1.1602 -1.5671
   46MOL    H4914539   4.789   4.207   1.479 -0.4314  0.1517  0.9364
   46MOL    C5014540   4.592   4.275   1.417  0.1806 -0.2989  0.2838
   46MOL    C5114541   4.523   4.236   1.549  0.2904 -0.0945 -0.2149
   46MOL    C5214542   4.594   4.241   1.673 -0.1873  0.0746  0.4688
   46MOL    C5314543   4.524   4.225   1.793  0.3819  0.1270 -0.5964
   46MOL   Cl5414544   4.601   4.216   1.948 -0.0856  0.2905  0.0629
   46MOL    C5514545   4.381   4.216   1.793  0.4482 -0.3769 -0.4102
   46MOL    C5614546   4.310   4.201   1.671 -0.2087 -0.3994  0.5466
   46MOL    C5714547   4.382   4.211   1.548  0.3114  0.0047 -0.5170
   46MOL    C5814548   4.622   4.423   1.405 -0.2531  0.3093 -0.2308
   46MOL    H5914549   4.526   4.246   1.335 -1.5098 -1.0714  1.8961
   46MOL    H6014550   4.700   4.256   1.678 -0.4528  3.0495 -1.9790
   46MOL    H6114551   4.325   4.205   1.884 -0.9547  1.2871 -1.0532
   46MOL    H6214552   4.205   4.179   1.680 -0.4477  0.5232  0.0432
   46MOL    H6314553   4.321   4.206   1.459  0.2415  2.8878 -0.6981
   46MOL    H6414554   4.587   4.479   1.492  2.6316  0.1231  1.0979
   46MOL    H6514555   4.730   4.438   1.414  0.4394 -3.1305 -2.0135
   46MOL    C6614556   4.566   4.492   1.280 -0.5817  0.3875 -0.4822
   46MOL    C6714557   4.417   4.471   1.263  0.0888 -0.6761 -0.0012
   46MOL    C6814558   4.325   4.513   1.361  0.0813 -0.4499  0.1175
   46MOL    C6914559   4.187   4.491   1.350  0.3574 -0.1085  0.3969
   46MOL   Cl7014560   4.086   4.561   1.476  0.1044 -0.0813 -0.1309
   46MOL    C7114561   4.138   4.427   1.236  0.5799 -0.1458  0.3444
   46MOL    C7214562   4.224   4.395   1.131  0.3720 -1.2899  0.2462
   46MOL    C7314563   4.368   4.411   1.147 -0.1696  0.5784  0.0570
   46MOL    C7414564   4.599   4.644   1.285  0.1517  0.0254  0.2424
   46MOL    H7514565   4.605   4.446   1.189 -1.1768  0.6426 -0.8639
   46MOL    H7614566   4.355   4.567   1.450  0.7751 -0.5654 -0.0441
   46MOL    H7714567   4.033   4.408   1.219  0.9136 -0.0892 -1.8895
   46MOL    H7814568   4.185   4.351   1.040 -0.7781 -0.0032  0.1086
   46MOL    H7914569   4.433   4.380   1.066  0.7876 -1.3700  1.5163
   46MOL    H8014570   4.548   4.709   1.214  1.0832 -0.3869 -0.8286
   46MOL    H8114571   4.564   4.689   1.377  1.2830  2.8841 -0.6645
   46MOL    C8214572   4.751   4.694   1.271 -0.7705 -0.6308 -0.6415
   46MOL    C8314573   4.804   4.654   1.130 -0.2964  0.6286  0.5586
   46MOL    C8414574   4.734   4.686   1.014 -0.0285  0.4858  0.4362
   46MOL    C8514575   4.781   4.645   0.887  0.5239  0.5062  0.4495
   46MOL   Cl8614576   4.706   4.672   0.735 -0.1376  0.1324  0.1267
   46MOL    C8714577   4.905   4.576   0.886  0.4114  0.3356 -0.2823
   46MOL    C8814578   4.978   4.544   1.005 -0.3881  0.2496  0.3076
   46MOL    C8914579   4.928   4.586   1.126 -0.0438  0.1667  0.0330
   46MOL    C9014580   4.768   4.844   1.312 -0.1852 -0.1468 -0.5375
   46MOL    H9114581   4.789   4.641   1.359 -0.7646  0.8996  0.2935
   46MOL    H9214582   4.641   4.741   1.022 -0.6070 -0.4661  0.2488
   46MOL    H9314583   4.952   4.535   0.797 -0.2522 -0.2051 -0.3848
   46MOL    H9414584   5.077   4.501   1.000 -0.6570 -0.6395  2.3233
   46MOL    H9514585   4.979   4.553   1.216 -1.3677 -1.8816  0.0877
   46MOL    H9614586   4.815   4.903   1.233  0.0626  1.1997  0.5916
   46MOL    H9714587   4.664   4.876   1.321  0.1672  0.6029  0.9853
   46MOL    C9814588   4.835   4.861   1.444 -0.3924  0.5194 -0.4998
   46MOL    C9914589   4.988   4.834   1.436 -0.3359 -0.2583 -0.4063
   46MOL   C10014590   5.034   4.721   1.506 -0.0593  0.0035  0.5127
   46MOL   C10114591   5.171   4.685   1.509 -0.7312 -0.1265 -0.6345
   46MOL  Cl10214592   5.230   4.559   1.609  0.1206 -0.0240 -0.0296
   46MOL   C10314593   5.264   4.761   1.430 -0.2406  0.5380  0.0425
   46MOL   C10414594   5.218   4.871   1.357 -0.4951  0.0454  0.2574
   46MOL   C10514595   5.082   4.907   1.357 -0.0085 -0.5419 -0.2991
   46MOL   C10614596   4.825   5.004   1.505 -0.0605 -0.7624 -0.2940
   46MOL   H10714597   4.797   4.789   1.517  1.9273 -0.3198 -0.0710
   46MOL   H10814598   4.975   4.657   1.570 -2.0199  0.0809 -1.1456
   46MOL   H10914599   5.371   4.747   1.430 -0.1620  1.0515  1.0852
   46MOL   H11014600   5.287   4.934   1.303 -1.4375 -0.0169 -1.0443
   46MOL   H11114601   5.046   4.983   1.290  0.4655  0.4993  0.6058
   46MOL   H11214602   4.899   5.068   1.456 -0.6504  0.9828  1.0327
   46MOL   H11314603   4.728   5.044   1.475 -0.6899 -2.2100 -0.2383
   46MOL   C11414604   4.831   5.018   1.664  0.3175 -0.0410 -0.3768
   46MOL   C11514605   4.950   4.962   1.735  0.0972  0.5106 -0.0103
   46MOL   C11614606   5.072   5.020   1.709 -0.2205 -0.0210 -0.3852
   46MOL   C11714607   5.188   4.957   1.765 -0.7799 -0.5856  0.8618
   46MOL  Cl11814608   5.350   5.015   1.727  0.1152  0.5048  0.2233
   46MOL   C11914609   5.177   4.844   1.845  0.8948  0.0101  0.6553
   46MOL   C12014610   5.052   4.791   1.888 -0.5617  0.2999  0.0163
   46MOL   C12114611   4.937   4.852   1.831 -0.3998 -0.6663  0.2817
   46MOL   C12214612   4.804   5.168   1.703  0.2082 -0.0141  0.4281
   46MOL   H12314613   4.745   4.972   1.713  0.6234  0.1219  0.3125
   46MOL   H12414614   5.095   5.108   1.650  0.7588 -0.9723 -1.4573
   46MOL   H12514615   5.271   4.813   1.889  1.4137  0.8891  0.1650
   46MOL   H12614616   5.040   4.705   1.951  0.3840  0.6567  0.7038
   46MOL   H12714617   4.835   4.824   1.853 -0.4659  0.3992  1.3969
   46MOL   H12814618   4.898   5.222   1.712  0.0787  0.2635  0.1122
   46MOL   H12914619   4.739   5.213   1.628  0.7344  0.7066  0.3974
   46MOL   C13014620   4.726   5.188   1.835  0.2684 -0.5455 -0.4533
   46MOL   C13114621   4.771   5.317   1.898  0.3013 -0.5908 -0.2441
   46MOL   C13214622   4.761   5.444   1.834  0.0445  0.8852  0.3187
   46MOL   C13314623   4.805   5.558   1.896 -0.2010 -0.8709  0.3490
   46MOL  Cl13414624   4.784   5.713   1.826 -0.3285 -0.1365  0.3564
   46MOL   C13514625   4.854   5.553   2.026  0.0133 -0.1676 -0.3701
   46MOL   C13614626   4.863   5.431   2.091  0.1336 -0.0377 -0.3833
   46MOL   C13714627   4.811   5.318   2.031  0.5361  0.2352  0.0750
   46MOL   C13814628   4.567   5.190   1.828  0.7341 -0.4704  0.1372
   46MOL   H13914629   4.746   5.107   1.905  2.7330  1.3549  1.1386
   46MOL   H14014630   4.737   5.450   1.729  0.5892  0.0017  0.1422
   46MOL   H14114631   4.894   5.644   2.069  0.9913 -0.2949 -0.9943
   46MOL   H14214632   4.900   5.433   2.192 -0.3430  1.0955 -0.2295
   46MOL   H14314633   4.805   5.226   2.086 -1.2475 -0.4896 -1.2755
   46MOL   H14414634   4.525   5.208   1.926  1.5765 -1.5827  0.7127
   46MOL   H14514635   4.541   5.269   1.757  1.8134 -0.5100 -0.3242
   46MOL   C14614636   4.496   5.065   1.774  0.5500  0.1777 -0.1402
   46MOL   C14714637   4.511   4.941   1.864  0.8500  0.4601  0.4810
   46MOL   C14814638   4.556   4.824   1.797  0.4461 -1.0113 -0.0634
   46MOL   C14914639   4.577   4.703   1.861  0.6269 -0.1223  0.9223
   46MOL  Cl15014640   4.650   4.563   1.783  0.4065  0.0180  0.0040
   46MOL   C15114641   4.543   4.699   2.000  0.3225 -0.9825  0.3771
   46MOL   C15214642   4.489   4.814   2.069  0.1475  0.5925  0.1179
   46MOL   C15314643   4.475   4.938   2.004 -0.7650 -0.5535  0.3900
   46MOL   C15414644   4.349   5.096   1.738 -0.1710 -0.2957 -0.5236
   46MOL   H15514645   4.535   5.037   1.677  1.2006  2.1633 -0.4649
   46MOL   H15614646   4.588   4.839   1.695  0.3642 -0.3990  0.0015
   46MOL   H15714647   4.565   4.605   2.048  0.7420  0.2120  2.5605
   46MOL   H15814648   4.463   4.801   2.173  1.5102 -1.6093  0.2178
   46MOL   H15914649   4.453   5.028   2.059 -0.3538 -1.4638  2.0657
   46MOL   H16014650   4.300   5.116   1.833  0.8275  0.2279 -0.1208
   46MOL   H16114651   4.344   5.191   1.685 -1.2178 -0.2187 -0.3027
   46MOL   C16214652   4.274   4.987   1.652 -0.0861 -0.2565 -0.3309
   46MOL   C16314653   4.205   4.895   1.756 -0.3712  0.1786 -0.6869
   46MOL   C16414654   4.110   4.945   1.850 -0.4093 -0.1206  0.4466
   46MOL   C16514655   4.054   4.859   1.949 -0.9574 -0.3290 -0.1857
   46MOL  Cl16614656   3.938   4.909   2.062 -0.1580 -0.1304 -0.0825
   46MOL   C16714657   4.085   4.722   1.944 -0.1947 -0.5496 -0.6579
   46MOL   C16814658   4.185   4.677   1.858 -0.0386 -0.1655  0.0009
   46MOL   C16914659   4.245   4.761   1.760  1.0469 -0.1028  0.0499
   46MOL   C17014660   4.157   5.051   1.568 -0.1303 -0.7452  0.2779
   46MOL   H17114661   4.338   4.930   1.585 -1.8244 -1.0541 -1.3434
   46MOL   H17214662   4.084   5.049   1.835  3.0590  0.9022  1.2765
   46MOL   H17314663   4.038   4.660   2.019  0.4693  0.6035  0.7288
   46MOL   H17414664   4.208   4.572   1.856  0.7605  0.0157 -0.3352
   46MOL   H17514665   4.315   4.724   1.686  1.5747  0.8006  0.0876
   46MOL   H17614666   4.085   4.973   1.544 -1.0494  0.5704 -1.3735
   46MOL   H17714667   4.097   5.114   1.634  0.3582 -0.3990  0.3945
   46MOL   C17814668   4.203   5.124   1.442  0.2199  0.2971  0.1752
   46MOL   C17914669   4.236   5.036   1.324  0.0407  0.1725  0.0880
   46MOL   C18014670   4.367   5.041   1.258 -0.1151  0.4902  0.5016
   46MOL   C18114671   4.404   4.954   1.158  0.6802  1.2589  0.1536
   46MOL  Cl18214672   4.546   4.990   1.062  0.0681  0.3588 -0.1267
   46MOL   C18314673   4.315   4.852   1.120 -0.0815 -0.1378 -0.3360
   46MOL   C18414674   4.188   4.839   1.184 -1.2512  0.3390 -0.1336
   46MOL   C18514675   4.149   4.930   1.289  0.3299  0.1716  1.0305
   46MOL   C18614676   4.094   5.221   1.383 -0.3490  0.1094  0.0685
   46MOL   H18714677   4.290   5.188   1.458  1.1510 -0.2366 -2.4924
   46MOL   H18814678   4.430   5.124   1.288 -0.8485  0.9627  0.7446
   46MOL   H18914679   4.351   4.780   1.048  1.4271 -0.0559  0.3187
   46MOL   H19014680   4.122   4.756   1.162  0.4897 -2.1273  3.3838
   46MOL   H19114681   4.052   4.930   1.336 -0.8517  1.1308 -1.2795
   46MOL   H19214682   4.144   5.255   1.292  1.1739 -0.8971  0.5087
   46MOL   H19314683   4.007   5.162   1.355  0.8319 -1.2537 -0.8252
   46MOL   C19414684   4.050   5.340   1.471 -0.0219 -0.4027  0.6848
   46MOL   C19514685   4.170   5.400   1.534  0.9035  0.2860  0.4656
   46MOL   C19614686   4.177   5.399   1.673  0.4513  0.0271  0.2710
   46MOL   C19714687   4.280   5.456   1.742  0.4245 -0.1816 -0.2680
   46MOL  Cl19814688   4.267   5.448   1.910 -0.0086  0.1390 -0.3838
   46MOL   C19914689   4.393   5.508   1.675  0.4394 -0.8726 -0.1052
   46MOL   C20014690   4.395   5.515   1.538 -0.6581  0.4484  0.3976
   46MOL   C20114691   4.281   5.465   1.470 -0.9263 -0.2638 -0.4920
   46MOL   C20214692   3.976   5.444   1.380  0.2857  0.2152  0.0327
   46MOL   H20314693   3.979   5.304   1.546 -0.5477 -0.4424  0.1795
   46MOL   H20414694   4.091   5.364   1.728  1.7033  0.0732  2.3037
   46MOL   H20514695   4.478   5.541   1.733 -0.3170  1.1081 -0.0672
   46MOL   H20614696   4.480   5.569   1.498  2.1590 -2.7151  1.8533
   46MOL   H20714697   4.274   5.485   1.364  0.5069 -0.5511 -0.6574
   46MOL   H20814698   4.041   5.508   1.322  1.4020 -0.3315  0.6659
   46MOL   H20914699   3.917   5.400   1.300  1.2560 -1.1294  0.0378
   46MOL   C21014700   3.872   5.533   1.461 -0.6955  0.4400  0.4758
   46MOL   C21114701   3.937   5.601   1.586  0.5079 -0.4047 -0.1423
   46MOL   C21214702   3.896   5.570   1.710  0.1052 -0.2046 -0.3967
   46MOL   C21314703   3.930   5.651   1.818 -0.5192 -0.5330 -0.6155
   46MOL  Cl21414704   3.865   5.627   1.977  0.1521  0.3329 -0.0914
   46MOL   C21514705   4.024   5.756   1.805  0.7487 -0.0911  0.1776
   46MOL   C21614706   4.078   5.787   1.672  0.0738  0.0245  0.3192
   46MOL   C21714707   4.026   5.707   1.566  0.3734 -0.2898 -0.0516
   46MOL   C21814708   3.792   5.633   1.369 -0.4954  0.2371 -0.4518
   46MOL   H21914709   3.794   5.466   1.497  1.6416 -2.1817  0.7909
   46MOL   H22014710   3.816   5.502   1.736 -0.5364  0.4953 -0.5172
   46MOL   H22114711   4.045   5.818   1.891 -2.9007  0.4210  0.7596
   46MOL   H22214712   4.152   5.858   1.639  0.5410 -1.1742 -1.2957
   46MOL   H22314713   4.059   5.729   1.466  1.5678  0.3616  0.4652
   46MOL   H22414714   3.868   5.680   1.307  0.8244 -1.8955 -0.5042
   46MOL   H22514715   3.735   5.566   1.304 -1.6603  0.0402  0.7598
   46MOL   C22614716   3.723   5.752   1.436  0.6661 -0.3989 -0.3417
   46MOL   C22714717   3.667   5.842   1.335 -0.2270  0.6664  0.1005
   46MOL   C22814718   3.711   5.978   1.328  0.4017 -0.2605 -0.3729
   46MOL   C22914719   3.645   6.070   1.239  0.8678 -0.6245 -0.8045
   46MOL  Cl23014720   3.681   6.241   1.246  0.3364  0.4552 -0.1173
   46MOL   C23114721   3.544   6.029   1.155  0.2451 -0.1313 -0.1129
   46MOL   C23214722   3.500   5.897   1.158  0.1344 -0.0702  0.1098
   46MOL   C23314723   3.560   5.804   1.250  0.9546 -0.2860  0.1001
   46MOL   C23414724   3.620   5.704   1.534 -1.0964 -0.0188  0.6423
   46MOL   H23514725   3.794   5.815   1.489 -2.0896  0.1127  2.9205
   46MOL   H23614726   3.797   6.012   1.385  0.1068 -0.1975  0.0361
   46MOL   H23714727   3.504   6.087   1.073  1.6858  0.8694 -0.1151
   46MOL   H23814728   3.429   5.858   1.087  0.2370 -1.5155  0.7834
   46MOL   H23914729   3.533   5.700   1.255 -0.4703 -0.0004 -1.1838
   46MOL   H24014730   3.545   5.645   1.481  0.3076 -1.6619  0.4523
   46MOL   H24114731   3.673   5.637   1.601  1.6522  0.6920 -0.7679
   46MOL   C24214732   3.546   5.815   1.623  0.1099  0.0631  0.3851
   46MOL   C24314733   3.415   5.745   1.687  0.0830  0.1963  0.0525
   46MOL   C24414734   3.414   5.704   1.825 -0.3197 -0.3537  0.7991
   46MOL   C24514735   3.307   5.644   1.882 -0.4526 -0.2691 -0.3568
   46MOL  Cl24614736   3.306   5.588   2.045  0.4001  0.0906 -0.0409
   46MOL   C24714737   3.190   5.632   1.802 -0.6369 -0.5397 -0.2088
   46MOL   C24814738   3.189   5.670   1.667  0.0773  0.0650  0.0148
   46MOL   C24914739   3.307   5.721   1.605  0.9091 -0.2023 -0.3834
   46MOL   C25014740   3.643   5.887   1.717  0.2584  0.4493  0.9374
   46MOL   H25114741   3.495   5.885   1.556 -0.5775 -0.2607  0.5673
   46MOL   H25214742   3.503   5.702   1.887  0.8622  0.6989 -0.8192
   46MOL   H25314743   3.098   5.600   1.849  0.0972 -1.4405  0.6278
   46MOL   H25414744   3.097   5.658   1.611  2.0157  0.4352 -3.4327
   46MOL   H25514745   3.312   5.771   1.509  0.5667  2.5503  0.9916
   46MOL   H25614746   3.658   5.816   1.799 -0.5297 -1.3294 -0.4309
   46MOL   H25714747   3.742   5.894   1.671  0.4460 -0.9141  1.1151
   46MOL   C25814748   3.596   6.026   1.762 -0.2207 -0.6495 -0.1912
   46MOL   C25914749   3.678   6.074   1.883  0.2112  0.2747 -0.0623
   46MOL   C26014750   3.619   6.126   1.997  0.3611  0.4057  0.1508
   46MOL   C26114751   3.703   6.163   2.108  0.2355  0.3202  0.3027
   46MOL  Cl26214752   3.633   6.244   2.251 -0.4608 -0.1335 -0.1933
   46MOL   C26314753   3.842   6.137   2.106  0.2360 -0.0281 -0.3761
   46MOL   C26414754   3.901   6.077   1.993 -0.0490 -0.4479 -1.3445
   46MOL   C26514755   3.823   6.043   1.885  0.1309 -0.3975 -0.0761
   46MOL   C26614756   3.622   6.133   1.649 -0.0344  0.0012 -0.7720
   46MOL   H26714757   3.491   6.024   1.789 -0.1074  2.1885  0.6089
   46MOL   H26814758   3.511   6.118   2.004  0.4949  0.5571  3.3505
   46MOL   H26914759   3.900   6.192   2.179 -2.4715  0.8294  1.2083
   46MOL   H27014760   4.008   6.070   1.980 -0.0753 -1.0949 -1.2217
   46MOL   H27114761   3.878   6.013   1.797  0.2111  1.6680 -0.7691
   46MOL   H27214762   3.729   6.151   1.654 -0.6843  4.2965 -0.6450
   46MOL   H27314763   3.595   6.086   1.554 -1.0708 -0.8799 -0.0663
   46MOL   C27414764   3.541   6.264   1.660 -0.9420  0.6637 -0.6217
   46MOL   C27514765   3.621   6.392   1.699  0.1213 -0.5968  0.5429
   46MOL   C27614766   3.654   6.431   1.834  0.3864  0.2160  0.1063
   46MOL   C27714767   3.734   6.541   1.863 -0.0015 -0.3084  0.2056
   46MOL  Cl27814768   3.765   6.583   2.029  0.5707  0.2030  0.1699
   46MOL   C27914769   3.794   6.613   1.753  0.2744 -0.3161 -0.5573
   46MOL   C28014770   3.755   6.578   1.624  0.0988  0.1103 -0.2526
   46MOL   C28114771   3.666   6.473   1.597 -0.4236  0.5932 -0.3509
   46MOL   C28214772   3.442   6.268   1.549  0.4672  0.4684  0.3682
   46MOL   H28314773   3.480   6.262   1.750 -0.9785  0.2254 -0.6562
   46MOL   H28414774   3.612   6.378   1.918  1.9622 -0.2683  0.5858
   46MOL   H28514775   3.871   6.686   1.769  0.0068 -0.4714  1.6069
   46MOL   H28614776   3.796   6.640   1.546 -1.9333 -0.1358 -1.5773
   46MOL   H28714777   3.648   6.458   1.492  0.8908 -1.3510 -0.3249
   46MOL   H28814778   3.498   6.283   1.457  0.7169 -0.6753  0.3185
   46MOL   H28914779   3.385   6.175   1.558  0.0041  0.9131  2.2493
   46MOL   C29014780   3.339   6.384   1.572 -0.2292 -0.0567  0.0224
   46MOL   C29114781   3.254   6.422   1.450 -0.6565 -0.0530  0.2676
   46MOL   C29214782   3.235   6.326   1.354  0.0788  0.9037  0.5138
   46MOL   C29314783   3.161   6.350   1.235 -0.2010 -0.1677 -0.0230
   46MOL  Cl29414784   3.121   6.209   1.135  0.2449  0.2072  0.1481
   46MOL   C29514785   3.117   6.479   1.215 -0.5758 -1.0808  0.3259
   46MOL   C29614786   3.143   6.585   1.308  0.2486  0.8888 -0.0135
   46MOL   C29714787   3.202   6.552   1.431 -0.3840 -0.8385  0.1415
   46MOL   C29814788   3.243   6.378   1.696  0.0502 -0.6611 -0.1326
   46MOL   H29914789   3.397   6.476   1.586 -0.3404  0.3242 -1.8751
   46MOL   H30014790   3.281   6.230   1.367 -0.8941  0.2150 -1.0497
   46MOL   H30114791   3.068   6.507   1.123 -0.0597 -2.5127 -0.3993
   46MOL   H30214792   3.111   6.687   1.293 -1.5522  0.2734 -0.4392
   46MOL   H30314793   3.222   6.632   1.500 -3.6633 -0.8979  1.2378
   46MOL   H30414794   3.296   6.344   1.785 -2.1771  1.8722  2.3062
   46MOL   H30514795   3.201   6.472   1.735  1.1442  0.4685 -1.6368
   46MOL   C30614796   3.138   6.277   1.665 -0.0643  0.4595  0.4829
   46MOL   C30714797   3.114   6.189   1.787  0.2235 -0.2130 -0.0727
   46MOL   C30814798   3.062   6.252   1.904  0.2336 -0.5188 -0.3701
   46MOL   C30914799   3.041   6.184   2.024  0.8183 -1.2071 -0.2706
   46MOL  Cl31014800   2.984   6.254   2.171  0.0571 -0.1794 -0.1018
   46MOL   C31114801   3.083   6.051   2.029  0.5335  0.6842  0.7558
   46MOL   C31214802   3.141   5.987   1.916 -0.0216  0.3838  0.1162
   46MOL   C31314803   3.146   6.053   1.793  0.7729  0.4481  1.0144
   46MOL   C31414804   3.001   6.339   1.627 -0.5664  0.4743  0.4020
   46MOL   H31514805   3.174   6.207   1.590 -2.0464 -0.6946  0.5610
   46MOL   H31614806   3.037   6.357   1.911  0.4275 -0.3326 -2.1669
   46MOL   H31714807   3.075   5.989   2.117 -0.0895  0.4562  0.5363
   46MOL   H31814808   3.174   5.885   1.926 -0.7816  0.0891 -0.3863
   46MOL   H31914809   3.191   6.001   1.710 -0.4446  0.9409  0.0281
   46MOL   H32014810   2.940   6.255   1.594 -0.1101  1.0992 -2.0781
   46MOL   H32114811   2.958   6.395   1.711 -0.9483  1.6971 -0.5997
   46MOL   H32214812   3.009   6.404   1.540  1.4925 -1.6260 -0.9984
   47MOL     C114813   3.878   2.340   8.044  0.0530  0.3241 -0.1308
   47MOL     C214814   3.736   2.337   8.094  0.1631  0.2325 -0.0520
   47MOL     C314815   3.645   2.423   8.026  0.3910 -0.8180  0.3897
   47MOL     C414816   3.514   2.421   8.064  0.3723  0.5800  0.7343
   47MOL    Cl514817   3.416   2.508   7.963  0.0635  0.0895 -0.0625
   47MOL     C614818   3.469   2.342   8.171  0.6292 -0.0931  0.5436
   47MOL     C714819   3.560   2.262   8.247  0.0148 -0.2263  0.1098
   47MOL     C814820   3.693   2.259   8.208  0.3365 -0.1958  0.1847
   47MOL     C914821   3.962   2.449   8.122  0.0156 -0.0179 -0.1965
   47MOL    H1014822   3.884   2.358   7.937 -1.1763  3.8741  0.3496
   47MOL    H1114823   3.676   2.478   7.939 -1.4072  0.3550  0.4578
   47MOL    H1214824   3.364   2.350   8.194  0.0146 -0.9151 -1.8167
   47MOL    H1314825   3.533   2.193   8.325 -0.3022  1.5112  1.5802
   47MOL    H1414826   3.760   2.184   8.248  0.2002 -0.7679 -0.6455
   47MOL    H1514827   4.060   2.445   8.076  0.9574  1.0090  1.6700
   47MOL    H1614828   3.923   2.544   8.085  1.7200 -0.2081 -2.6042
   47MOL    H1714829   3.926   2.248   8.078 -1.3578 -1.2439 -2.2896
   47MOL    C1814830   3.985   2.450   8.279  0.5995 -0.0683  0.2293
   47MOL    C1914831   4.002   2.312   8.338 -0.1038  0.9869  0.0987
   47MOL    C2014832   3.925   2.276   0.021 -0.6727 -0.3649 -0.2702
   47MOL    C2114833   3.951   2.156   0.088 -0.7748  0.3119  0.0290
   47MOL   Cl2214834   3.875   2.114   0.242 -0.2260 -0.0727 -0.3969
   47MOL    C2314835   4.045   2.067   0.031 -0.0343 -0.2627  0.4739
   47MOL    C2414836   4.122   2.104   8.351 -0.4618 -0.5166  0.0452
   47MOL    C2514837   4.086   2.217   8.278  0.3059 -0.0761  0.3992
   47MOL    C2614838   4.103   2.543   8.319  0.0754  0.1661  0.2076
   47MOL    H2714839   3.891   2.493   8.312  2.3690  3.0242  1.4783
   47MOL    H2814840   3.863   2.350   0.068 -0.6273  1.4919 -3.0478
   47MOL    H2914841   4.061   1.970   0.076 -0.3714 -0.5680 -0.0509
   47MOL    H3014842   4.210   2.056   8.312 -0.1465  0.3274 -0.2672
   47MOL    H3114843   4.144   2.238   8.189 -1.7506 -1.9054 -1.4478
   47MOL    H3214844   4.198   2.502   8.283  0.2508 -1.7081  2.6641
   47MOL    H3314845   4.092   2.630   8.255  0.5477 -0.7210 -1.1178
   47MOL    C3414846   4.111   2.583   0.036 -0.7846 -0.2887  0.3921
   47MOL    C3514847   4.241   2.657   0.074  0.1181  0.2528 -0.1520
   47MOL    C3614848   4.275   2.673   0.207 -0.0696 -0.2332 -0.3632
   47MOL    C3714849   4.397   2.731   0.244  0.2943 -0.3013  0.3216
   47MOL   Cl3814850   4.457   2.720   0.406 -0.3443 -0.3411  0.4024
   47MOL    C3914851   4.473   2.799   0.148 -0.3946 -0.2240 -0.2772
   47MOL    C4014852   4.441   2.786   0.016 -0.3548  0.5328  0.3600
   47MOL    C4114853   4.325   2.717   8.412 -1.0075  0.3816 -0.9814
   47MOL    C4214854   3.988   2.670   0.090  0.2991 -0.0638 -0.2107
   47MOL    H4314855   4.116   2.493   0.096 -0.8435 -1.0577 -0.7507
   47MOL    H4414856   4.221   2.610   0.276  3.3319 -0.6165  2.1239
   47MOL    H4514857   4.558   2.852   0.188 -2.1514  3.1598 -0.8389
   47MOL    H4614858   4.502   2.838   8.378  0.3684 -0.3873  0.2843
   47MOL    H4714859   4.294   2.715   8.308 -0.1982 -1.8004 -1.1981
   47MOL    H4814860   3.895   2.635   0.045  0.4393 -0.1743 -0.4165
   47MOL    H4914861   3.979   2.649   0.196  1.2340 -0.4003 -0.1906
   47MOL    C5014862   4.006   2.820   0.078 -0.5957 -0.0805  0.1709
   47MOL    C5114863   4.009   2.866   8.372  0.6974 -0.4844  0.6355
   47MOL    C5214864   4.120   2.943   8.324  0.2710 -0.6703 -0.3757
   47MOL    C5314865   4.117   2.988   8.193  0.3897 -0.5959  0.1926
   47MOL   Cl5414866   4.239   3.092   8.124  0.0545 -0.0843  0.1249
   47MOL    C5514867   4.017   2.941   8.104 -0.1932 -0.1401  0.8086
   47MOL    C5614868   3.907   2.862   8.150 -0.2071  0.1244 -0.5434
   47MOL    C5714869   3.904   2.826   8.284 -0.0015  0.4567 -0.2305
   47MOL    C5814870   3.901   2.892   0.161  0.0654  0.6822 -0.4779
   47MOL    H5914871   4.099   2.860   0.117  0.2720 -2.5614  0.7174
   47MOL    H6014872   4.178   2.984   8.405 -1.9337  1.3313  0.2535
   47MOL    H6114873   4.021   2.968   8.000  0.1275 -1.4817  0.4576
   47MOL    H6214874   3.837   2.821   8.078 -1.7565 -0.1923  1.1172
   47MOL    H6314875   3.819   2.767   8.316 -0.7660  2.6428  1.9907
   47MOL    H6414876   3.801   2.855   0.138  0.0640  0.5507 -0.2624
   47MOL    H6514877   3.931   2.859   0.261 -1.3700  0.9239  0.0502
   47MOL    C6614878   3.898   3.043   0.182  0.3505 -0.8367  0.2079
   47MOL    C6714879   4.040   3.105   0.187 -0.6691 -0.5917 -0.3807
   47MOL    C6814880   4.124   3.061   0.289  0.3977 -0.1614 -0.4147
   47MOL    C6914881   4.258   3.112   0.286  0.2063  0.0266 -0.4871
   47MOL   Cl7014882   4.373   3.055   0.399 -0.3287  0.1455  0.2216
   47MOL    C7114883   4.299   3.206   0.192  0.1231  0.5526  0.1359
   47MOL    C7214884   4.215   3.247   0.092  0.3470 -0.6129  0.5980
   47MOL    C7314885   4.083   3.200   0.091 -0.5945  0.7312 -0.4396
   47MOL    C7414886   3.793   3.124   0.096 -0.6971 -0.1988 -0.2446
   47MOL    H7514887   3.875   3.057   0.287  0.6770 -3.1587  0.5975
   47MOL    H7614888   4.099   2.978   0.352  0.0183  1.4600  1.5964
   47MOL    H7714889   4.398   3.248   0.207  0.1705 -0.0375  1.5580
   47MOL    H7814890   4.244   3.321   0.020  0.8676 -2.5132 -1.2076
   47MOL    H7914891   4.016   3.231   0.012 -4.2320  0.0642  2.2545
   47MOL    H8014892   3.829   3.225   0.082  0.0467 -0.3927  0.2297
   47MOL    H8114893   3.790   3.083   8.429 -0.3714  0.4670 -0.5193
   47MOL    C8214894   3.656   3.117   0.153 -0.2415  1.0332 -0.6608
   47MOL    C8314895   3.659   3.176   0.297 -0.7397 -0.4996  0.1774
   47MOL    C8414896   3.698   3.308   0.306 -0.1938 -0.2899 -0.4162
   47MOL    C8514897   3.695   3.372   0.430 -0.5253 -0.9286 -0.0499
   47MOL   Cl8614898   3.744   3.536   0.441 -0.2066 -0.0090 -0.5104
   47MOL    C8714899   3.655   3.301   0.547  0.3131  0.1104  0.0432
   47MOL    C8814900   3.626   3.163   0.539 -0.1345 -0.6330 -0.1136
   47MOL    C8914901   3.632   3.101   0.416 -0.8900 -0.1863  0.2405
   47MOL    C9014902   3.550   3.196   0.068 -0.1535  0.3332 -0.0240
   47MOL    H9114903   3.622   3.013   0.158  2.5263  0.1602  0.4267
   47MOL    H9214904   3.717   3.368   0.219 -1.8141  0.4655 -0.2724
   47MOL    H9314905   3.646   3.349   0.643 -0.8562 -0.4386  0.2077
   47MOL    H9414906   3.618   3.117   0.636 -1.3213 -0.1190  0.0412
   47MOL    H9514907   3.629   2.994   0.406  0.4364 -0.1469 -0.6414
   47MOL    H9614908   3.462   3.201   0.132 -1.8291  2.2864 -2.3793
   47MOL    H9714909   3.575   3.302   0.056  0.7535  0.5199  2.9693
   47MOL    C9814910   3.504   3.138   8.370 -0.1346 -0.1613  0.1968
   47MOL    C9914911   3.466   2.986   8.373 -0.2306 -0.0089 -0.6188
   47MOL   C10014912   3.364   2.941   0.026 -0.7959 -0.1781  0.5009
   47MOL   C10114913   3.331   2.806   0.039 -0.1097 -0.5322  0.4143
   47MOL  Cl10214914   3.197   2.758   0.144  0.0551 -0.1160 -0.1910
   47MOL   C10314915   3.399   2.710   8.391 -0.3844 -0.7569  0.9023
   47MOL   C10414916   3.506   2.751   8.310 -0.2231 -0.4783 -0.0548
   47MOL   C10514917   3.539   2.889   8.302 -0.1317  0.0562  0.0720
   47MOL   C10614918   3.401   3.230   8.300  0.9228 -0.1644 -0.0917
   47MOL   H10714919   3.592   3.137   8.306 -0.4054 -1.7453 -0.1886
   47MOL   H10814920   3.300   3.009   0.080  0.1390  0.9852  0.1713
   47MOL   H10914921   3.380   2.604   8.400 -0.2778 -1.0679 -2.0819
   47MOL   H11014922   3.559   2.677   8.253  0.5187 -0.8624  1.1174
   47MOL   H11114923   3.624   2.916   8.241  0.6294 -0.9818  0.6475
   47MOL   H11214924   3.326   3.242   8.378  1.2913 -2.2067  0.6271
   47MOL   H11314925   3.450   3.327   8.293  1.8346 -0.5020  1.3949
   47MOL   C11414926   3.331   3.165   8.165  0.1089 -0.6543  0.0025
   47MOL   C11514927   3.214   3.250   8.124  0.3730  0.3405  0.0264
   47MOL   C11614928   3.086   3.217   8.172 -0.7067 -0.0950 -0.7415
   47MOL   C11714929   2.973   3.290   8.132 -0.3454  0.2004  0.2616
   47MOL  Cl11814930   2.823   3.244   8.196 -0.2103 -0.0609  0.3317
   47MOL   C11914931   2.997   3.406   8.052  0.3794 -0.3192 -0.0544
   47MOL   C12014932   3.124   3.444   8.012  0.8543 -0.0555  0.4680
   47MOL   C12114933   3.235   3.365   8.046  0.2400  0.3830 -0.5118
   47MOL   C12214934   3.433   3.132   8.053  0.0167  0.2273 -0.0681
   47MOL   H12314935   3.293   3.070   8.202  0.3867 -0.0588  1.9062
   47MOL   H12414936   3.082   3.136   8.243 -3.0540  0.0955 -0.6111
   47MOL   H12514937   2.910   3.461   8.018 -0.0930  0.5387  2.4023
   47MOL   H12614938   3.137   3.529   7.946 -0.1998 -0.6695 -0.5525
   47MOL   H12714939   3.332   3.398   8.011  1.3469 -1.4631  0.7031
   47MOL   H12814940   3.474   3.226   8.016 -0.7474  0.8251  0.5807
   47MOL   H12914941   3.519   3.080   8.095  0.4981  1.0035 -0.0923
   47MOL   C13014942   3.356   3.048   7.942  0.0349 -1.2173 -0.2565
   47MOL   C13114943   3.454   3.037   7.820  0.2362  0.4843  0.2291
   47MOL   C13214944   3.579   2.971   7.834 -0.2576 -0.0862  0.0380
   47MOL   C13314945   3.658   2.945   7.720  0.6573  0.4212 -0.4347
   47MOL  Cl13414946   3.808   2.865   7.736 -0.4458  0.0072  0.0400
   47MOL   C13514947   3.622   2.993   7.592  0.0135 -0.3234 -0.5048
   47MOL   C13614948   3.508   3.078   7.584  0.3444  0.1413 -0.5620
   47MOL   C13714949   3.419   3.092   7.693  0.3200 -0.1342  0.1055
   47MOL   C13814950   3.312   2.910   7.989  1.4391  0.6239 -0.3428
   47MOL   H13914951   3.272   3.107   7.905  1.1041  2.5041  2.9159
   47MOL   H14014952   3.609   2.926   7.927 -0.4540 -2.9204 -1.2251
   47MOL   H14114953   3.680   2.986   7.501  2.5766 -1.1796  1.1280
   47MOL   H14214954   3.476   3.116   7.488 -0.7287  0.0101 -0.2625
   47MOL   H14314955   3.326   3.143   7.673 -0.5822 -0.6436  2.7668
   47MOL   H14414956   3.340   2.841   7.909 -3.6117 -3.0375  0.7758
   47MOL   H14514957   3.379   2.885   8.071  0.4265 -0.7146  0.0892
   47MOL   C14614958   3.165   2.889   8.021 -0.0867 -0.1155 -0.5376
   47MOL   C14714959   3.076   2.909   7.897 -0.1075 -1.1534  1.1389
   47MOL   C14814960   2.993   3.027   7.880 -0.0102  0.2442 -0.1010
   47MOL   C14914961   2.927   3.057   7.762  0.2745 -0.0907  0.3572
   47MOL  Cl15014962   2.857   3.212   7.733  0.0152 -0.1976 -0.0553
   47MOL   C15114963   2.918   2.954   7.664  0.1406  1.0460 -0.2705
   47MOL   C15214964   2.982   2.829   7.686 -0.0703  0.0765 -0.1202
   47MOL   C15314965   3.070   2.813   7.798  0.5558  0.2056  0.0465
   47MOL   C15414966   3.141   2.754   8.103  0.2188 -0.2374  0.6078
   47MOL   H15514967   3.133   2.977   8.076  0.3737  0.6470 -1.4678
   47MOL   H15614968   3.002   3.100   7.959 -0.4905  0.6160 -0.3879
   47MOL   H15714969   2.868   2.968   7.569  0.2148  1.9036 -0.1864
   47MOL   H15814970   2.968   2.758   7.606  0.0807 -1.7732  1.4705
   47MOL   H15914971   3.128   2.723   7.811 -2.7094 -1.5605  3.3115
   47MOL   H16014972   3.176   2.680   8.031 -1.6978  0.2645 -0.8896
   47MOL   H16114973   3.196   2.763   8.197  0.8280 -2.4898  0.4970
   47MOL   C16214974   2.990   2.734   8.149 -0.0581  0.3679 -0.2527
   47MOL   C16314975   2.998   2.586   8.195 -0.3061  0.9982 -0.1669
   47MOL   C16414976   3.012   2.485   8.096 -0.2589 -1.0795 -0.4598
   47MOL   C16514977   3.051   2.356   8.142 -0.5370  0.2221  0.1518
   47MOL  Cl16614978   3.103   2.253   8.011  0.2868  0.0840 -0.3286
   47MOL   C16714979   3.066   2.321   8.273  0.2790 -0.2572 -0.2731
   47MOL   C16814980   3.040   2.417   8.371  0.3037  0.0298 -0.2087
   47MOL   C16914981   3.011   2.547   8.331  0.4990  0.5246 -0.7766
   47MOL   C17014982   2.953   2.846   8.255 -0.0758 -0.2018  0.2696
   47MOL   H17114983   2.931   2.735   8.058  0.0065 -0.6130 -0.3098
   47MOL   H17214984   3.011   2.501   7.989  0.2235 -1.9859 -0.5987
   47MOL   H17314985   3.091   2.218   8.293  0.6241 -0.0413  0.4231
   47MOL   H17414986   3.055   2.389   0.039  4.9052 -1.4896 -1.1477
   47MOL   H17514987   3.016   2.618   8.412  0.1752 -0.2152 -0.1034
   47MOL   H17614988   3.031   2.842   8.330  0.2451  1.8019  0.0878
   47MOL   H17714989   2.965   2.949   8.220 -0.9455 -0.1705  0.0403
   47MOL   C17814990   2.822   2.834   8.338  0.2279 -0.4201  0.3962
   47MOL   C17914991   2.856   2.878   0.050  0.3383  0.0709 -0.4557
   47MOL   C18014992   2.878   2.782   0.149  0.0118  0.0956 -0.7887
   47MOL   C18114993   2.913   2.824   0.281  0.3114  0.4006  0.3471
   47MOL  Cl18214994   2.933   2.697   0.397  0.0359  0.5895  0.2860
   47MOL   C18314995   2.925   2.956   0.312 -0.3316 -0.2253  0.8236
   47MOL   C18414996   2.909   3.054   0.211 -0.2505  0.3693  0.3546
   47MOL   C18514997   2.878   3.013   0.079 -0.1707 -0.2220 -0.2190
   47MOL   C18614998   2.693   2.898   8.278  0.2228 -0.1983 -0.7000
   47MOL   H18714999   2.808   2.726   8.339  1.0417 -0.5372  0.1216
   47MOL   H18815000   2.852   2.680   0.123 -1.4470  0.0322  0.8265
   47MOL   H18915001   2.942   2.992   0.412 -0.3744  0.5883  0.5457
   47MOL   H19015002   2.915   3.160   0.231 -1.6284  0.5561 -0.1457
   47MOL   H19115003   2.872   3.087   0.000  0.3420  0.5345  0.4357
   47MOL   H19215004   2.716   3.003   8.257 -0.8705  0.0944 -0.4475
   47MOL   H19315005   2.683   2.854   8.178 -0.5535  0.2047 -0.8016
   47MOL   C19415006   2.553   2.900   8.348 -0.3548  0.1193  0.8045
   47MOL   C19515007   2.554   2.974   0.043  0.4828 -0.2407  1.0847
   47MOL   C19615008   2.536   2.917   0.171  0.1676 -0.5564 -0.6777
   47MOL   C19715009   2.543   2.995   0.290  0.6958  0.5413  0.4515
   47MOL  Cl19815010   2.518   2.918   0.442  0.0389 -0.0263 -0.3857
   47MOL   C19915011   2.555   3.134   0.281  0.0478 -0.2568  0.8745
   47MOL   C20015012   2.567   3.198   0.157  0.5335  0.0546 -0.6200
   47MOL   C20115013   2.566   3.119   0.037 -0.2146  0.5470 -0.1323
   47MOL   C20215014   2.434   2.950   8.264  0.2729  0.0638  0.0468
   47MOL   H20315015   2.536   2.796   8.374 -1.8401  0.1143 -0.0901
   47MOL   H20415016   2.526   2.810   0.186  0.6456 -0.7688 -1.8262
   47MOL   H20515017   2.546   3.192   0.372 -0.2326  1.3432 -0.1623
   47MOL   H20615018   2.566   3.306   0.165 -0.5707  0.0758 -0.9673
   47MOL   H20715019   2.566   3.178   8.382 -0.5693 -0.5940 -0.8904
   47MOL   H20815020   2.442   3.057   8.246  1.4358 -0.6958 -4.6169
   47MOL   H20915021   2.463   2.919   8.164  0.0212  0.5077 -0.1689
   47MOL   C21015022   2.289   2.898   8.304  0.0506  0.5812 -0.6847
   47MOL   C21115023   2.231   2.970   8.427 -1.0752 -0.5292  0.3003
   47MOL   C21215024   2.202   3.110   8.416 -0.5311  0.5232  0.0597
   47MOL   C21315025   2.152   3.177   0.093 -0.3587  0.5624  0.2445
   47MOL  Cl21415026   2.092   3.338   0.076  0.3438  0.2399  0.3966
   47MOL   C21515027   2.123   3.107   0.213  0.4577  0.4240 -0.2076
   47MOL   C21615028   2.163   2.976   0.225  0.2146  0.8596 -0.3790
   47MOL   C21715029   2.203   2.900   0.116  0.3411  0.1371 -0.1683
   47MOL   C21815030   2.188   2.896   8.192  0.0148  0.1160  0.9033
   47MOL   H21915031   2.304   2.795   8.337  2.3754  0.0342 -3.2018
   47MOL   H22015032   2.223   3.161   8.323 -0.3424  0.3283 -0.0048
   47MOL   H22115033   2.089   3.160   0.301  1.0099  2.3161 -1.0984
   47MOL   H22215034   2.169   2.922   0.318 -1.4797 -2.8866 -2.3141
   47MOL   H22315035   2.241   2.800   0.133 -1.7900 -0.5210  0.9523
   47MOL   H22415036   2.088   2.869   8.228  0.3426 -0.5376  1.3379
   47MOL   H22515037   2.184   2.999   8.157 -1.4349 -0.2578 -0.0577
   47MOL   C22615038   2.225   2.812   8.066 -0.3362  0.5569 -0.1824
   47MOL   C22715039   2.270   2.671   8.088  0.0336  0.5929 -0.0521
   47MOL   C22815040   2.407   2.651   8.087 -0.6142  0.4053  0.0506
   47MOL   C22915041   2.463   2.519   8.088  0.1720  0.2459  0.4083
   47MOL  Cl23015042   2.640   2.500   8.089 -0.2879  0.3000  0.8722
   47MOL   C23115043   2.374   2.412   8.096 -0.3290 -0.2597  0.7223
   47MOL   C23215044   2.235   2.434   8.109 -0.1451 -0.1863  1.1777
   47MOL   C23315045   2.183   2.561   8.098 -0.4615 -0.1170  0.3056
   47MOL   C23415046   2.116   2.819   7.955 -0.1636 -0.5118  0.6162
   47MOL   H23515047   2.311   2.864   8.023  0.0639  0.1764  0.1494
   47MOL   H23615048   2.477   2.731   8.070  1.0385 -1.5702 -2.6975
   47MOL   H23715049   2.410   2.311   8.107  0.5195 -0.1743 -1.1304
   47MOL   H23815050   2.158   2.359   8.111 -0.0650 -0.2545  1.6473
   47MOL   H23915051   2.075   2.573   8.095 -0.2453  1.9057  0.1128
   47MOL   H24015052   2.032   2.755   7.984 -2.6956  2.6099  0.5282
   47MOL   H24115053   2.077   2.921   7.954 -1.7563 -1.0972  0.8874
   47MOL   C24215054   2.159   2.789   7.808 -0.4433 -0.5038 -0.0131
   47MOL   C24315055   2.049   2.706   7.737  0.1728  0.6900 -0.3428
   47MOL   C24415056   2.065   2.565   7.721 -0.4530  0.2902 -1.0859
   47MOL   C24515057   1.960   2.486   7.671 -0.0296  0.2016  0.1064
   47MOL  Cl24615058   1.996   2.320   7.631 -0.1566  0.3385  0.0771
   47MOL   C24715059   1.836   2.548   7.646  0.1506  0.0479  1.1280
   47MOL   C24815060   1.819   2.689   7.662 -0.2601 -0.2083 -0.3127
   47MOL   C24915061   1.926   2.771   7.698  0.6216 -0.2589  0.9555
   47MOL   C25015062   2.190   2.917   7.719 -0.8088  0.8526  0.1137
   47MOL   H25115063   2.239   2.715   7.811  1.2564  1.3374  1.0938
   47MOL   H25215064   2.160   2.517   7.737 -1.4286 -1.1024  0.5989
   47MOL   H25315065   1.755   2.480   7.624  1.7204 -1.3499 -0.4028
   47MOL   H25415066   1.721   2.729   7.640 -1.7779 -3.6041 -0.0696
   47MOL   H25515067   1.908   2.877   7.709 -1.7920  0.1287 -4.5873
   47MOL   H25615068   2.190   2.891   7.613  1.0954 -0.7992  0.4821
   47MOL   H25715069   2.113   2.992   7.737 -0.6116  1.2725 -0.7698
   47MOL   C25815070   2.325   2.987   7.740 -0.6019  0.0671  1.3469
   47MOL   C25915071   2.441   2.888   7.738 -0.3508  0.0358 -0.1342
   47MOL   C26015072   2.472   2.811   7.628 -0.0403  0.5463  0.1879
   47MOL   C26115073   2.590   2.734   7.633 -0.3171  0.2085 -0.4611
   47MOL  Cl26215074   2.641   2.653   7.487 -0.3305  0.4042 -0.0847
   47MOL   C26315075   2.671   2.729   7.748 -0.1790 -0.3372 -0.1685
   47MOL   C26415076   2.644   2.812   7.859  0.4511 -0.7350 -0.1569
   47MOL   C26515077   2.531   2.895   7.847 -0.2399  0.3651  0.0949
   47MOL   C26615078   2.353   3.095   7.634 -0.5448  0.2839  0.3534
   47MOL   H26715079   2.326   3.031   7.840  0.1959  0.1105  1.3231
   47MOL   H26815080   2.421   2.830   7.535 -0.4735 -0.0447  0.2979
   47MOL   H26915081   2.743   2.649   7.745 -0.3949 -0.4906 -2.3340
   47MOL   H27015082   2.718   2.806   7.938  0.5521 -1.3197 -0.2902
   47MOL   H27115083   2.512   2.965   7.927 -3.7239  1.0769 -1.2850
   47MOL   H27215084   2.460   3.109   7.626 -0.6957  0.0594 -2.5023
   47MOL   H27315085   2.329   3.050   7.538  0.7437  0.1489  0.0896
   47MOL   C27415086   2.299   3.232   7.668 -0.5495  0.3470 -0.0070
   47MOL   C27515087   2.367   3.277   7.796  0.9204  0.0750  0.2383
   47MOL   C27615088   2.287   3.305   7.913  0.4828  0.1573 -0.0539
   47MOL   C27715089   2.354   3.352   8.028  0.3751 -0.5802  0.0391
   47MOL  Cl27815090   2.267   3.402   8.172 -0.1295 -0.0175 -0.2485
   47MOL   C27915091   2.493   3.369   8.034  0.1647  0.0769 -0.1313
   47MOL   C28015092   2.569   3.353   7.914  0.0139  0.1306  0.5416
   47MOL   C28115093   2.506   3.307   7.794  0.5671  0.6583 -0.1433
   47MOL   C28215094   2.301   3.337   7.562 -0.7963 -0.2699  0.7981
   47MOL   H28315095   2.194   3.224   7.693 -0.4807  1.4181  0.6548
   47MOL   H28415096   2.179   3.299   7.922  0.2939  3.1643  0.0622
   47MOL   H28515097   2.537   3.393   8.130 -1.0369 -1.6447  0.8800
   47MOL   H28615098   2.676   3.359   7.903 -0.2859  1.8698 -1.8738
   47MOL   H28715099   2.566   3.292   7.705  0.1669  1.1900 -0.5065
   47MOL   H28815100   2.286   3.437   7.602 -2.7744 -0.7067  1.2317
   47MOL   H28915101   2.403   3.332   7.525 -1.5641 -1.4017 -1.2580
   47MOL   C29015102   2.195   3.311   7.448 -0.0574 -0.5675 -0.0421
   47MOL   C29115103   2.052   3.332   7.501 -0.2039  0.7795  0.0766
   47MOL   C29215104   1.985   3.456   7.499  0.6376  0.5089  0.4454
   47MOL   C29315105   1.852   3.467   7.538 -0.3382 -1.6861 -0.9588
   47MOL  Cl29415106   1.777   3.624   7.528  0.4770  0.1072 -0.3813
   47MOL   C29515107   1.782   3.358   7.587  0.1138 -0.3983 -1.0613
   47MOL   C29615108   1.849   3.236   7.586  0.8093  0.0870  0.4488
   47MOL   C29715109   1.984   3.219   7.550 -0.5141  0.6610 -0.1572
   47MOL   C29815110   2.217   3.405   7.330 -0.6961  0.0244 -0.0640
   47MOL   H29915111   2.203   3.208   7.413 -0.9564 -0.7264  0.1850
   47MOL   H30015112   2.040   3.542   7.463  0.3156  0.1078 -1.0195
   47MOL   H30115113   1.683   3.360   7.630  0.5198  1.9509 -0.1293
   47MOL   H30215114   1.796   3.145   7.612 -1.2661  1.0861 -0.2142
   47MOL   H30315115   2.016   3.116   7.547 -0.1527  0.8010 -2.5951
   47MOL   H30415116   2.132   3.402   7.263  1.2566 -0.8794 -2.5682
   47MOL   H30515117   2.225   3.511   7.352  0.6425 -0.1963  0.5680
   47MOL   C30615118   2.344   3.390   7.235  0.1725  0.5700 -0.5741
   47MOL   C30715119   2.363   3.245   7.191 -0.9780  0.1788 -0.0821
   47MOL   C30815120   2.456   3.154   7.258  0.1599 -0.2844 -0.1739
   47MOL   C30915121   2.481   3.021   7.220  0.9187  0.0080 -1.1139
   47MOL  Cl31015122   2.597   2.929   7.308 -0.1980  0.1976  0.0005
   47MOL   C31115123   2.408   2.968   7.113  0.8991 -0.2476  0.5903
   47MOL   C31215124   2.322   3.055   7.036  0.0286 -0.1243 -0.0193
   47MOL   C31315125   2.297   3.185   7.081 -0.0698  0.0151 -0.3307
   47MOL   C31415126   2.330   3.485   7.117 -0.0666  0.3727  0.3458
   47MOL   H31515127   2.428   3.421   7.299  1.0276 -0.5008 -1.1569
   47MOL   H31615128   2.516   3.199   7.335 -1.6850  3.0825 -0.5813
   47MOL   H31715129   2.430   2.868   7.078 -0.3393 -0.2878 -0.0786
   47MOL   H31815130   2.264   3.021   6.951 -2.5641  1.1493  1.2136
   47MOL   H31915131   2.237   3.251   7.019 -0.1326 -0.3132 -0.6187
   47MOL   H32015132   2.318   3.590   7.142 -1.6628  0.1163  0.7292
   47MOL   H32115133   2.418   3.483   7.052  1.5899 -1.2642  2.5817
   47MOL   H32215134   2.240   3.463   7.060  1.6082 -2.0357 -1.5204
   48MOL     C115135   4.521   3.606   8.236  0.1822 -0.0761 -0.1334
   48MOL     C215136   4.547   3.711   8.124  0.1995 -0.0762 -0.4012
   48MOL     C315137   4.443   3.789   8.073  0.6649  0.7860 -0.2473
   48MOL     C415138   4.465   3.866   7.955 -0.8219 -0.1123  0.2141
   48MOL    Cl515139   4.343   3.962   7.886 -0.4947 -0.5586  0.2041
   48MOL     C615140   4.593   3.868   7.901 -0.2678 -0.2753  0.2349
   48MOL     C715141   4.700   3.798   7.956  0.0837 -0.1055 -0.4155
   48MOL     C815142   4.678   3.710   8.068  0.5142  0.4441 -0.1589
   48MOL     C915143   4.508   3.657   8.376 -0.0318  0.0196 -0.2172
   48MOL    H1015144   4.601   3.532   8.232 -0.2111 -0.4595 -0.9773
   48MOL    H1115145   4.341   3.771   8.102  0.3600  1.9641 -0.5768
   48MOL    H1215146   4.604   3.939   7.820  0.3981  1.5040  1.8311
   48MOL    H1315147   4.792   3.790   7.900 -1.1507 -3.4501 -2.1193
   48MOL    H1415148   4.755   3.646   8.109 -0.1787 -2.0728 -2.6571
   48MOL    H1515149   4.613   3.680   8.394  0.1384 -1.8259  1.3533
   48MOL    H1615150   4.447   3.744   8.395 -0.6208 -0.6487  1.0150
   48MOL    H1715151   4.430   3.553   8.209  1.1069 -0.9558 -1.5819
   48MOL    C1815152   4.477   3.549   0.048 -0.4839  0.0724  0.1029
   48MOL    C1915153   4.564   3.418   0.034  0.0329  0.3870  0.0397
   48MOL    C2015154   4.528   3.312   8.381 -0.4022  0.8837  0.1487
   48MOL    C2115155   4.617   3.199   8.373  0.6602 -0.7918  0.6561
   48MOL   Cl2215156   4.585   3.068   8.260  0.1167  0.3960  0.1251
   48MOL    C2315157   4.733   3.188   0.016  0.8143 -0.0453 -0.1294
   48MOL    C2415158   4.760   3.290   0.101 -0.6195 -0.0968 -0.7474
   48MOL    C2515159   4.683   3.408   0.107  0.1775  0.1542 -0.1085
   48MOL    C2615160   4.489   3.603   0.193 -0.0574 -0.1953  0.2130
   48MOL    H2715161   4.373   3.520   0.035 -0.9825  2.6319 -1.9409
   48MOL    H2815162   4.441   3.319   8.317  0.1289  3.2038 -0.3700
   48MOL    H2915163   4.795   3.100   0.009  1.8300  0.6357  0.3064
   48MOL    H3015164   4.836   3.288   0.178 -1.1551 -0.5811 -0.2214
   48MOL    H3115165   4.714   3.490   0.171  0.2200  0.6485 -0.7588
   48MOL    H3215166   4.477   3.527   0.270  1.1351 -0.0793  0.5081
   48MOL    H3315167   4.582   3.658   0.205 -1.0665  1.0973  2.3010
   48MOL    C3415168   4.382   3.712   0.237 -0.1916  0.1846 -0.1862
   48MOL    C3515169   4.242   3.692   0.189 -0.2855 -0.2678 -1.2145
   48MOL    C3615170   4.163   3.795   0.136  0.4428  0.0124 -0.4570
   48MOL    C3715171   4.020   3.777   0.117  0.6710  0.0645 -0.6387
   48MOL   Cl3815172   3.914   3.898   0.058 -0.3942 -0.1129 -0.0071
   48MOL    C3915173   3.963   3.653   0.159  0.5359  0.1519 -0.2816
   48MOL    C4015174   4.039   3.549   0.208 -0.3504  0.2379  0.1398
   48MOL    C4115175   4.178   3.568   0.219  0.4556 -0.3310  0.2830
   48MOL    C4215176   4.381   3.734   0.391 -0.0193  0.9068  0.3133
   48MOL    H4315177   4.422   3.809   0.208 -0.7147  0.7074  0.7920
   48MOL    H4415178   4.211   3.889   0.115 -0.2143 -0.1235 -2.6791
   48MOL    H4515179   3.857   3.634   0.155  0.4196  1.0596 -2.8973
   48MOL    H4615180   3.995   3.451   0.224  0.1739  0.2363  1.6673
   48MOL    H4715181   4.248   3.494   0.257  0.4516  0.0126  0.9741
   48MOL    H4815182   4.296   3.798   0.415 -0.4562 -0.5739  2.9113
   48MOL    H4915183   4.334   3.647   0.437 -0.4794  1.5985  1.1558
   48MOL    C5015184   4.521   3.769   0.454  0.2339  0.8750 -0.5069
   48MOL    C5115185   4.554   3.915   0.436  0.2230 -0.0843  0.3578
   48MOL    C5215186   4.490   4.016   0.513 -0.4194  0.1498  0.2328
   48MOL    C5315187   4.526   4.147   0.491  0.0613 -0.2504  0.1193
   48MOL   Cl5415188   4.449   4.271   0.578  0.1367  0.1258  0.0590
   48MOL    C5515189   4.628   4.177   0.402  0.3179 -0.2740  0.4890
   48MOL    C5615190   4.689   4.078   0.321  0.1519  0.4288  0.0428
   48MOL    C5715191   4.640   3.947   0.334 -0.7020  0.0130 -0.0348
   48MOL    C5815192   4.520   3.718   0.603  0.2909  0.0357  0.0900
   48MOL    H5915193   4.602   3.708   0.413  3.1892  2.7138  2.3596
   48MOL    H6015194   4.421   3.982   0.589 -0.0839 -0.2991  0.3372
   48MOL    H6115195   4.659   4.280   0.388 -1.0289 -0.1329 -1.7363
   48MOL    H6215196   4.762   4.103   0.246 -0.6204 -2.0092 -1.5716
   48MOL    H6315197   4.691   3.872   0.275 -0.7558 -0.4520  0.5059
   48MOL    H6415198   4.597   3.762   0.667  0.1003 -0.4012  0.6124
   48MOL    H6515199   4.427   3.761   0.640 -0.2836  0.2926 -1.5727
   48MOL    C6615200   4.524   3.573   0.633  0.7747  0.5640  0.0546
   48MOL    C6715201   4.651   3.501   0.585 -0.4073 -0.0704  0.0539
   48MOL    C6815202   4.638   3.370   0.527 -0.1346 -0.1602  0.1490
   48MOL    C6915203   4.752   3.300   0.487  0.6920 -0.0360 -0.3112
   48MOL   Cl7015204   4.745   3.133   0.438 -0.1216  0.1429  0.1856
   48MOL    C7115205   4.876   3.352   0.504  0.0260  0.4866  0.2940
   48MOL    C7215206   4.890   3.475   0.570 -0.5440 -0.3869  0.0223
   48MOL    C7315207   4.779   3.554   0.603  0.0649  0.5173 -0.8759
   48MOL    C7415208   4.507   3.542   0.785  1.3698  0.2335  0.4566
   48MOL    H7515209   4.440   3.532   0.577 -0.8456  2.6707  0.8822
   48MOL    H7615210   4.540   3.326   0.518  0.2442 -0.8995 -0.4113
   48MOL    H7715211   4.964   3.299   0.473  0.5132  2.0480 -1.0673
   48MOL    H7815212   4.984   3.520   0.601  0.0391 -1.2409 -0.4821
   48MOL    H7915213   4.793   3.644   0.662  1.8053  0.1819 -0.7670
   48MOL    H8015214   4.530   3.437   0.807 -1.3463 -0.4702  0.0744
   48MOL    H8115215   4.573   3.604   0.846  2.1024  0.7645 -0.8471
   48MOL    C8215216   4.364   3.570   0.829  0.2836  0.6097 -0.3858
   48MOL    C8315217   4.259   3.529   0.734 -0.5336  0.6154 -0.4239
   48MOL    C8415218   4.247   3.384   0.717  0.3185 -0.0116  0.6321
   48MOL    C8515219   4.158   3.326   0.625 -0.3616 -0.4289 -1.0361
   48MOL   Cl8615220   4.145   3.158   0.600  0.1129  0.2191 -0.1457
   48MOL    C8715221   4.083   3.412   0.545 -0.0105 -0.2566  0.4264
   48MOL    C8815222   4.096   3.555   0.554  0.7593 -0.3539  0.0683
   48MOL    C8915223   4.183   3.613   0.649 -0.7140 -0.3167  0.4583
   48MOL    C9015224   4.355   3.509   0.971  0.7971 -0.1351 -0.5319
   48MOL    H9115225   4.360   3.678   0.827  0.4393  0.6099 -0.6312
   48MOL    H9215226   4.292   3.307   0.778 -0.6729 -0.2271  1.0906
   48MOL    H9315227   4.014   3.375   0.470 -0.7903 -1.4708  1.7256
   48MOL    H9415228   4.042   3.625   0.493 -0.7513 -2.1724 -0.7490
   48MOL    H9515229   4.177   3.721   0.650 -0.2881 -0.2979  1.7537
   48MOL    H9615230   4.388   3.406   0.961  1.0485 -0.1181  0.0855
   48MOL    H9715231   4.430   3.560   1.031  1.2669 -0.9388 -0.4355
   48MOL    C9815232   4.210   3.498   1.034  0.5888 -0.5785  0.2792
   48MOL    C9915233   4.223   3.399   1.153  0.3998  0.7364 -0.2423
   48MOL   C10015234   4.169   3.263   1.147 -0.4036 -0.3244  0.6113
   48MOL   C10115235   4.151   3.185   1.261  0.3573 -0.6298 -0.0985
   48MOL  Cl10215236   4.073   3.036   1.243 -0.4190 -0.1719  0.5239
   48MOL   C10315237   4.213   3.225   1.383  1.7776  0.6074 -0.7603
   48MOL   C10415238   4.277   3.350   1.390 -0.4177  0.2363 -0.3416
   48MOL   C10515239   4.280   3.441   1.280  0.4450  0.2541 -0.0982
   48MOL   C10615240   4.152   3.631   1.078 -0.4825  0.8822  0.2296
   48MOL   H10715241   4.152   3.455   0.952 -0.3557 -1.4888  1.4074
   48MOL   H10815242   4.138   3.223   1.052 -0.6040 -1.1365  1.0195
   48MOL   H10915243   4.218   3.158   1.468  1.0703 -0.2658 -1.3935
   48MOL   H11015244   4.325   3.379   1.482 -2.3513  1.5416  0.2781
   48MOL   H11115245   4.325   3.539   1.284  5.6149 -1.7936 -3.1269
   48MOL   H11215246   4.224   3.694   1.130 -0.6371  1.5417 -0.3534
   48MOL   H11315247   4.141   3.683   0.983 -1.9590  0.0462 -0.0790
   48MOL   C11415248   4.009   3.624   1.152  0.6416 -0.1103 -0.4179
   48MOL   C11515249   4.030   3.673   1.294  0.2303  0.3678  0.0570
   48MOL   C11615250   4.053   3.805   1.312 -0.2258 -0.1167 -0.4589
   48MOL   C11715251   4.093   3.859   1.437 -0.1801  0.4868  0.4972
   48MOL  Cl11815252   4.122   4.028   1.449  0.3104  0.0837  0.3081
   48MOL   C11915253   4.112   3.775   1.549 -0.4928 -0.1625 -0.5846
   48MOL   C12015254   4.086   3.639   1.532 -0.4986  0.2945  0.1116
   48MOL   C12115255   4.045   3.588   1.408 -0.0103  0.8033 -0.5094
   48MOL   C12215256   3.891   3.697   1.091 -0.0900  0.2911  0.6982
   48MOL   H12315257   3.988   3.518   1.166 -2.3223  0.4010 -0.8074
   48MOL   H12415258   4.053   3.883   1.237 -0.4609  1.6026  1.2635
   48MOL   H12515259   4.142   3.809   1.647 -2.1267 -0.1364 -0.0760
   48MOL   H12615260   4.114   3.582   1.619  3.2402  0.1125 -1.1530
   48MOL   H12715261   4.044   3.481   1.398  4.0182  0.9501 -4.0304
   48MOL   H12815262   3.807   3.691   1.160  0.2218 -1.6476  0.9413
   48MOL   H12915263   3.911   3.804   1.083 -2.1646  0.5672 -1.4287
   48MOL   C13015264   3.850   3.643   0.945  0.0929  0.2620  0.2298
   48MOL   C13115265   3.815   3.499   0.952 -0.7065 -0.5085  0.1525
   48MOL   C13215266   3.712   3.457   1.044 -0.7487  0.3244  0.3966
   48MOL   C13315267   3.680   3.318   1.054 -0.3455 -0.5901  0.4920
   48MOL  Cl13415268   3.575   3.261   1.180  0.1002 -0.3379 -0.5405
   48MOL   C13515269   3.756   3.223   0.986  0.1252  0.0720  0.4819
   48MOL   C13615270   3.855   3.262   0.900 -0.3582  0.2789 -0.1449
   48MOL   C13715271   3.886   3.400   0.886 -0.0459  0.9312  0.2981
   48MOL   C13815272   3.739   3.733   0.883 -1.0011 -0.2987 -0.3418
   48MOL   H13915273   3.932   3.659   0.875 -0.0714 -0.8530 -0.2203
   48MOL   H14015274   3.656   3.519   1.112  1.9551  1.3610  1.7329
   48MOL   H14115275   3.735   3.118   1.001 -0.3840 -0.5960 -4.3181
   48MOL   H14215276   3.902   3.181   0.845 -0.2749 -0.8084  1.5070
   48MOL   H14315277   3.968   3.423   0.820  0.9180 -2.8093  0.0680
   48MOL   H14415278   3.708   3.695   0.785  2.7998 -0.4203 -1.5464
   48MOL   H14515279   3.642   3.720   0.932 -1.0824 -2.0960 -0.9259
   48MOL   C14615280   3.755   3.879   0.853  0.2596 -0.3380  1.1723
   48MOL   C14715281   3.880   3.912   0.769  0.3250  0.0782 -0.2634
   48MOL   C14815282   3.973   4.006   0.822  0.4557  1.4644 -0.3248
   48MOL   C14915283   4.071   4.062   0.740 -0.2539  0.3796 -0.3631
   48MOL  Cl15015284   4.179   4.183   0.806  0.3096 -0.2129  0.2614
   48MOL   C15115285   4.088   4.018   0.609 -0.0093 -0.2624 -0.3894
   48MOL   C15215286   3.996   3.922   0.557 -0.0538  0.1252 -0.8923
   48MOL   C15315287   3.892   3.871   0.635  0.2167  0.1974 -0.3001
   48MOL   C15415288   3.636   3.955   0.800 -0.7839  0.3901  0.8457
   48MOL   H15515289   3.773   3.920   0.953  1.7355  1.2463  0.2920
   48MOL   H15615290   3.964   4.037   0.925  2.2147  1.5089 -0.1753
   48MOL   H15715291   4.156   4.069   0.542 -0.9838 -0.3295 -1.4371
   48MOL   H15815292   3.994   3.889   0.454 -1.1540 -0.1670 -0.7817
   48MOL   H15915293   3.826   3.799   0.589  1.1972 -1.4266  0.7604
   48MOL   H16015294   3.626   3.927   0.696  0.6330 -0.6745  0.9812
   48MOL   H16115295   3.550   3.909   0.850 -1.2876 -0.0546 -0.4136
   48MOL   C16215296   3.635   4.114   0.825  0.4030 -0.1785 -0.6707
   48MOL   C16315297   3.664   4.198   0.704 -1.3745  0.2946 -0.3251
   48MOL   C16415298   3.757   4.302   0.718  0.4077 -0.6168 -0.0297
   48MOL   C16515299   3.802   4.380   0.615  0.4619 -0.4447  0.3343
   48MOL  Cl16615300   3.914   4.510   0.648 -0.0549 -0.1511 -0.0041
   48MOL   C16715301   3.747   4.344   0.486  0.3649 -1.0544 -0.2457
   48MOL   C16815302   3.661   4.234   0.465 -0.5506 -0.2912 -0.0531
   48MOL   C16915303   3.610   4.162   0.574 -0.3517  0.4009  0.3322
   48MOL   C17015304   3.506   4.161   0.899  0.0937  0.2719  0.4621
   48MOL   H17115305   3.720   4.143   0.888 -0.6751  0.4514  0.5233
   48MOL   H17215306   3.789   4.331   0.817 -0.2041  1.8389 -0.5087
   48MOL   H17315307   3.779   4.402   0.400  4.3996 -0.6287  1.3961
   48MOL   H17415308   3.625   4.211   0.366 -1.0500 -0.0073  0.0586
   48MOL   H17515309   3.534   4.088   0.557 -0.6418  0.8276 -0.2518
   48MOL   H17615310   3.513   4.269   0.910 -0.9548  0.3119  0.7791
   48MOL   H17715311   3.416   4.138   0.842 -0.5313  1.7632  0.8341
   48MOL   C17815312   3.493   4.112   1.045 -0.3279  0.1522  0.0614
   48MOL   C17915313   3.601   4.159   1.135  0.4378  0.5019  0.3956
   48MOL   C18015314   3.617   4.297   1.144 -0.5816  0.9044 -0.2546
   48MOL   C18115315   3.716   4.346   1.226  0.0557 -0.0424 -0.3165
   48MOL  Cl18215316   3.726   4.513   1.261  0.2489 -0.1019  0.0380
   48MOL   C18315317   3.799   4.260   1.298  0.0936 -1.5377 -0.1125
   48MOL   C18415318   3.777   4.123   1.296 -1.2649 -0.1013  0.4367
   48MOL   C18515319   3.678   4.070   1.209 -0.4215  0.4588 -0.3011
   48MOL   C18615320   3.359   4.144   1.104 -0.3987  0.3231  0.0602
   48MOL   H18715321   3.506   4.004   1.052  3.1056  0.6105  1.5060
   48MOL   H18815322   3.556   4.368   1.091  1.3508  2.1709 -0.8717
   48MOL   H18915323   3.865   4.305   1.371 -0.7339  2.0794 -1.5241
   48MOL   H19015324   3.842   4.059   1.354  0.3058  0.1068 -1.0658
   48MOL   H19115325   3.679   3.962   1.199  1.3545  0.1540  2.5810
   48MOL   H19215326   3.369   4.107   1.206 -1.0845 -2.8323 -0.9485
   48MOL   H19315327   3.356   4.251   1.083  0.7017  0.8242  2.3649
   48MOL   C19415328   3.238   4.081   1.034 -0.0092  0.1288 -0.2095
   48MOL   C19515329   3.233   3.930   1.042 -0.1173 -0.5740  0.6041
   48MOL   C19615330   3.261   3.845   0.932  0.0244  0.5358  0.6248
   48MOL   C19715331   3.267   3.706   0.950  0.0116  0.2394 -0.0470
   48MOL  Cl19815332   3.323   3.604   0.828 -0.0535 -0.3446 -0.3571
   48MOL   C19915333   3.236   3.655   1.075  0.3605 -0.0169 -0.2035
   48MOL   C20015334   3.201   3.734   1.186  0.0300  0.6425  0.1960
   48MOL   C20115335   3.201   3.871   1.167 -0.0111  0.2568  0.5129
   48MOL   C20215336   3.100   4.145   1.079  0.0957 -0.1589 -0.5065
   48MOL   H20315337   3.245   4.101   0.927 -0.9267  1.7623  0.0218
   48MOL   H20415338   3.293   3.894   0.842 -1.9885 -1.1499 -1.0579
   48MOL   H20515339   3.250   3.548   1.082 -0.5961 -0.1275  0.1136
   48MOL   H20615340   3.164   3.689   1.277  2.6761 -1.8564  0.1006
   48MOL   H20715341   3.172   3.930   1.252 -1.5236 -1.3031  1.1115
   48MOL   H20815342   3.023   4.076   1.045  0.0927 -0.7518  0.6869
   48MOL   H20915343   3.103   4.135   1.187 -1.2643 -1.7411 -0.5928
   48MOL   C21015344   3.066   4.292   1.036 -0.3085 -0.1904 -0.7738
   48MOL   C21115345   3.060   4.318   0.887  0.2899 -0.0245  0.0443
   48MOL   C21215346   2.958   4.265   0.809  0.0090  0.3034 -0.4599
   48MOL   C21315347   2.951   4.292   0.668 -0.4541 -0.1333 -0.5344
   48MOL  Cl21415348   2.823   4.243   0.575  0.0986 -0.3172 -0.4491
   48MOL   C21515349   3.053   4.361   0.601 -0.5222  0.3838  0.1176
   48MOL   C21615350   3.152   4.415   0.682 -0.3873 -0.2882  0.0957
   48MOL   C21715351   3.153   4.400   0.827  0.3620  0.1358  0.1267
   48MOL   C21815352   2.942   4.346   1.129 -0.0259  0.5621  0.4592
   48MOL   H21915353   3.148   4.357   1.068 -1.4988 -0.0187  2.0540
   48MOL   H22015354   2.877   4.216   0.861  0.1339  0.1155 -0.4424
   48MOL   H22115355   3.041   4.385   0.496 -1.1664  1.1573  0.3644
   48MOL   H22215356   3.224   4.485   0.642  0.1896 -0.3897  0.9291
   48MOL   H22315357   3.222   4.463   0.881 -0.9339 -0.3675  2.4404
   48MOL   H22415358   2.867   4.271   1.103 -0.2519  1.0243 -0.2521
   48MOL   H22515359   2.965   4.351   1.235  0.8288  1.7657  0.2286
   48MOL   C22615360   2.890   4.489   1.088 -0.0180  0.6526 -0.1898
   48MOL   C22715361   2.738   4.503   1.088  0.3696  0.2155  0.4032
   48MOL   C22815362   2.673   4.533   0.966 -0.3772  0.4786  0.2216
   48MOL   C22915363   2.534   4.545   0.953 -0.4881  0.4213  0.5951
   48MOL  Cl23015364   2.463   4.577   0.804  0.6875 -0.1665  0.2434
   48MOL   C23115365   2.453   4.517   1.064  0.0781  0.0545  0.2590
   48MOL   C23215366   2.512   4.495   1.193 -0.4548 -0.4947 -0.6983
   48MOL   C23315367   2.655   4.494   1.200 -0.1588  0.5528 -0.5317
   48MOL   C23415368   2.964   4.590   1.167  0.0714 -0.0678 -0.0578
   48MOL   H23515369   2.913   4.509   0.983 -1.9695 -0.5187 -0.8628
   48MOL   H23615370   2.733   4.556   0.880  0.5551 -2.4455  0.0352
   48MOL   H23715371   2.347   4.497   1.051 -0.0620  1.8536 -1.5755
   48MOL   H23815372   2.453   4.478   1.281  0.6394 -1.8343 -0.2183
   48MOL   H23915373   2.696   4.487   1.299 -0.8865  1.8725 -0.1272
   48MOL   H24015374   2.937   4.587   1.273 -0.3593 -0.8947 -0.1848
   48MOL   H24115375   3.068   4.558   1.171  0.0387 -0.1369  0.2511
   48MOL   C24215376   2.945   4.733   1.116 -0.2396 -0.6997  0.2855
   48MOL   C24315377   2.944   4.836   1.229  0.7440 -0.2211 -0.3981
   48MOL   C24415378   3.046   4.842   1.329 -0.0381 -0.7767 -0.9049
   48MOL   C24515379   3.039   4.939   1.433  0.2829  0.1714 -0.1096
   48MOL  Cl24615380   3.155   4.940   1.560 -0.6033  0.4228  0.0308
   48MOL   C24715381   2.945   5.039   1.433  0.4085 -0.8509 -0.4964
   48MOL   C24815382   2.837   5.026   1.343  0.4820  0.1029  0.6254
   48MOL   C24915383   2.831   4.918   1.246 -0.4069 -0.4024 -0.1581
   48MOL   C25015384   3.055   4.756   1.004 -0.6648  0.4581  0.7409
   48MOL   H25115385   2.851   4.739   1.061 -0.4571 -2.2375  0.4610
   48MOL   H25215386   3.123   4.767   1.340  0.4129 -0.3284 -0.9700
   48MOL   H25315387   2.936   5.120   1.503 -1.9994 -1.3784 -0.1315
   48MOL   H25415388   2.762   5.103   1.344  0.3115 -0.0422 -0.3892
   48MOL   H25515389   2.745   4.901   1.183 -1.5716 -0.0962  1.3298
   48MOL   H25615390   3.101   4.659   0.981 -3.0214 -0.8344  1.3009
   48MOL   H25715391   2.998   4.774   0.912 -2.2072 -1.2394  1.3338
   48MOL   C25815392   3.177   4.855   1.013 -0.3691  0.3188  0.8939
   48MOL   C25915393   3.293   4.815   0.917 -0.3052  0.0306 -0.0548
   48MOL   C26015394   3.387   4.714   0.956  0.1892 -0.1089  0.9353
   48MOL   C26115395   3.498   4.687   0.871  0.3554  0.4478  0.2416
   48MOL  Cl26215396   3.612   4.560   0.921 -0.6059  0.3305  0.1348
   48MOL   C26315397   3.510   4.751   0.747  0.4952  1.1541  0.8195
   48MOL   C26415398   3.408   4.835   0.700  0.0546 -0.1839  0.3925
   48MOL   C26515399   3.303   4.872   0.785 -0.3518 -0.6199  0.0468
   48MOL   C26615400   3.133   4.999   1.002  0.1357 -0.3499  0.2738
   48MOL   H26715401   3.223   4.830   1.109 -2.5623 -2.9694  1.1674
   48MOL   H26815402   3.376   4.652   1.043  1.5777 -0.1772  1.0779
   48MOL   H26915403   3.597   4.728   0.687 -0.4571 -3.6289  1.1201
   48MOL   H27015404   3.412   4.879   0.602 -0.0726 -0.3606  0.3069
   48MOL   H27115405   3.231   4.944   0.750  1.9055  0.1475 -3.2595
   48MOL   H27215406   3.105   5.021   0.899  3.3483  0.8229 -0.3928
   48MOL   H27315407   3.034   5.005   1.048 -0.8054 -2.3424 -1.3894
   48MOL   C27415408   3.224   5.100   1.080  0.3417  0.6046  0.3623
   48MOL   C27515409   3.337   5.152   0.995 -0.5619  0.4955 -0.6745
   48MOL   C27615410   3.465   5.115   1.033 -0.2294 -0.5258 -0.3139
   48MOL   C27715411   3.571   5.152   0.946 -0.4351  0.0052  0.3170
   48MOL  Cl27815412   3.738   5.121   0.995  0.1190  0.0680 -0.2776
   48MOL   C27915413   3.553   5.216   0.821 -0.6189  0.5804 -0.3569
   48MOL   C28015414   3.417   5.255   0.795  0.0330 -0.0161  0.2233
   48MOL   C28115415   3.313   5.221   0.877 -0.6848 -0.1950  0.2589
   48MOL   C28215416   3.135   5.213   1.139  0.1400  0.7286  0.6323
   48MOL   H28315417   3.255   5.047   1.170 -2.2502 -2.2298 -0.3119
   48MOL   H28415418   3.481   5.067   1.128  2.6856  1.3317  0.2032
   48MOL   H28515419   3.639   5.225   0.756  1.0605 -1.0603  1.5563
   48MOL   H28615420   3.404   5.313   0.704  1.3459 -1.2249 -0.7527
   48MOL   H28715421   3.213   5.262   0.870 -0.4780  0.5490  1.4339
   48MOL   H28815422   3.062   5.256   1.070 -2.2503 -0.8730  2.1010
   48MOL   H28915423   3.070   5.165   1.212  0.2294  1.0670  0.9330
   48MOL   C29015424   3.219   5.316   1.223 -0.2382  0.0022 -0.2454
   48MOL   C29115425   3.137   5.438   1.271 -0.1120 -0.2334  0.2970
   48MOL   C29215426   3.191   5.566   1.257  0.3504 -0.5738  0.0123
   48MOL   C29315427   3.118   5.679   1.294 -0.0201  0.2317  0.9178
   48MOL  Cl29415428   3.190   5.834   1.278  0.1635 -0.0000  0.6344
   48MOL   C29515429   2.996   5.658   1.356  0.5072  0.6450  0.3002
   48MOL   C29615430   2.947   5.530   1.389 -0.3206 -0.3045 -0.7337
   48MOL   C29715431   3.014   5.420   1.332  0.1453  0.5714  0.8912
   48MOL   C29815432   3.281   5.251   1.352  0.1747 -0.3725 -0.1697
   48MOL   H29915433   3.298   5.350   1.157  0.6201 -2.1372 -0.3526
   48MOL   H30015434   3.285   5.578   1.206  0.8860  0.0491  1.1191
   48MOL   H30115435   2.950   5.749   1.391  0.7883  0.3552  1.4473
   48MOL   H30215436   2.857   5.508   1.444  0.4372 -0.9136  0.2703
   48MOL   H30315437   2.971   5.322   1.344 -2.2594  1.9024  3.4015
   48MOL   H30415438   3.190   5.231   1.407  1.3706 -2.9756  0.9295
   48MOL   H30515439   3.329   5.156   1.330 -2.2086 -1.8772  0.9649
   48MOL   C30615440   3.386   5.338   1.429 -0.1542  0.6241 -0.0708
   48MOL   C30715441   3.440   5.270   1.560  0.2283  0.1705  1.1301
   48MOL   C30815442   3.487   5.136   1.573 -0.0328  0.2268 -0.4791
   48MOL   C30915443   3.521   5.087   1.703  0.0516 -0.0690 -0.3629
   48MOL  Cl31015444   3.567   4.918   1.723 -0.0309 -0.4265  0.0548
   48MOL   C31115445   3.513   5.171   1.818  0.1365 -0.0507  0.2400
   48MOL   C31215446   3.485   5.307   1.800  0.6899 -0.8010  0.2195
   48MOL   C31315447   3.448   5.357   1.671 -0.7690  0.5265 -0.8104
   48MOL   C31415448   3.503   5.381   1.339  0.0272 -0.0168  0.3817
   48MOL   H31515449   3.331   5.428   1.459 -1.4084  0.7186 -2.5238
   48MOL   H31615450   3.494   5.064   1.493 -0.7242 -2.7179  1.9994
   48MOL   H31715451   3.535   5.129   1.915 -0.7696  0.7337  0.7957
   48MOL   H31815452   3.488   5.374   1.885  1.0930  1.0351 -1.2302
   48MOL   H31915453   3.425   5.462   1.664  2.0797  1.3004  0.5987
   48MOL   H32015454   3.576   5.440   1.395 -2.1655  1.9693  1.2551
   48MOL   H32115455   3.553   5.289   1.310  0.1912  0.3894 -0.6399
   48MOL   H32215456   3.477   5.442   1.253  1.5143  1.6485  1.0791
   49MOL     C115457   4.066   0.630   6.042  0.7845  0.1178 -0.4387
   49MOL     C215458   4.166   0.517   6.054 -0.3729  0.1507  0.2030
   49MOL     C315459   4.298   0.530   5.993 -0.0061 -0.4812  0.3915
   49MOL     C415460   4.382   0.417   5.985 -0.1833 -0.2566  0.2149
   49MOL    Cl515461   4.537   0.424   5.908  0.2688 -0.0365 -0.5298
   49MOL     C615462   4.345   0.296   6.049 -0.0277 -0.2252 -0.2175
   49MOL     C715463   4.231   0.289   6.127  0.4774 -0.3854 -0.2479
   49MOL     C815464   4.137   0.395   6.118 -0.8073 -0.1767  0.0397
   49MOL     C915465   4.122   0.770   6.070  0.9039 -0.2859  0.1053
   49MOL    H1015466   3.982   0.611   6.109  0.4428 -1.0605 -1.1831
   49MOL    H1115467   4.341   0.617   5.943  0.5544 -0.9282  0.0885
   49MOL    H1215468   4.408   0.209   6.059  3.7351  2.1766 -1.5041
   49MOL    H1315469   4.201   0.202   6.184  1.6463  0.1934  1.2669
   49MOL    H1415470   4.037   0.390   6.158 -1.3926 -0.6711 -1.4369
   49MOL    H1515471   4.161   0.766   6.171 -0.3158 -0.4877  0.5720
   49MOL    H1615472   4.204   0.783   5.999  0.1704 -1.5619 -0.9959
   49MOL    H1715473   4.008   0.632   5.950  0.9490 -0.4216 -0.5555
   49MOL    C1815474   4.022   0.881   6.041 -0.1376 -0.2375 -0.7486
   49MOL    C1915475   3.906   0.875   6.141  0.5611 -0.1307 -0.2027
   49MOL    C2015476   3.917   0.867   6.285 -0.3873 -0.4873  0.3059
   49MOL    C2115477   3.802   0.845   6.365 -0.6049 -0.1041 -0.6907
   49MOL   Cl2215478   3.815   0.830   6.533 -0.0323  0.0567 -0.1643
   49MOL    C2315479   3.677   0.834   6.303 -0.2485  0.1517  0.1806
   49MOL    C2415480   3.671   0.833   6.156  0.6090 -0.1436 -0.2066
   49MOL    C2515481   3.780   0.859   6.078 -0.0507 -0.4173 -0.2820
   49MOL    C2615482   4.072   1.027   6.043  0.4407 -0.4709  0.3176
   49MOL    H2715483   3.980   0.868   5.942 -1.8564 -1.4091  0.0970
   49MOL    H2815484   4.015   0.863   6.332  0.9974  0.3703 -2.3765
   49MOL    H2915485   3.586   0.823   6.359 -0.6185  0.2840 -0.3891
   49MOL    H3015486   3.573   0.836   6.112 -1.2373  1.6011  3.7765
   49MOL    H3115487   3.774   0.858   5.971 -2.4620 -0.4999 -0.1754
   49MOL    H3215488   3.986   1.089   6.017  0.9015  0.0035 -0.0900
   49MOL    H3315489   4.105   1.076   6.135 -0.5044 -2.4248  1.7320
   49MOL    C3415490   4.187   1.076   5.948  0.2805  0.0120  0.0450
   49MOL    C3515491   4.178   1.030   5.804  0.2260 -0.0885  0.2040
   49MOL    C3615492   4.079   1.081   5.718  0.1609  0.0283  0.0254
   49MOL    C3715493   4.065   1.028   5.584 -0.4004  0.5819  0.3062
   49MOL   Cl3815494   3.927   1.061   5.482 -0.1506  0.2899 -0.2961
   49MOL    C3915495   4.161   0.934   5.541 -0.4026  0.3690  0.8986
   49MOL    C4015496   4.267   0.895   5.626  0.3999  0.2709  1.0275
   49MOL    C4115497   4.269   0.938   5.757 -0.1537 -0.1738 -0.1577
   49MOL    C4215498   4.200   1.226   5.948  0.6002  0.1630  0.2458
   49MOL    H4315499   4.283   1.038   5.983  0.3858 -0.0927 -0.3610
   49MOL    H4415500   4.009   1.151   5.762  0.6164 -0.2272  1.1854
   49MOL    H4515501   4.147   0.900   5.440 -0.9846 -1.8272  1.6883
   49MOL    H4615502   4.342   0.822   5.600 -0.9628 -0.2618 -1.5071
   49MOL    H4715503   4.350   0.896   5.815  2.9525  1.3801 -3.1689
   49MOL    H4815504   4.114   1.282   5.910  1.7441  1.5534 -0.3487
   49MOL    H4915505   4.201   1.253   6.054 -0.1578 -1.1776  0.6065
   49MOL    C5015506   4.325   1.284   5.874  0.2351 -0.2228 -0.4206
   49MOL    C5115507   4.280   1.378   5.758  0.3523 -0.7793  0.1595
   49MOL    C5215508   4.239   1.517   5.765  0.4712  0.0186 -0.3661
   49MOL    C5315509   4.197   1.590   5.651 -0.7148 -0.4667  0.0169
   49MOL   Cl5415510   4.171   1.760   5.660 -0.3443  0.0278  0.2755
   49MOL    C5515511   4.208   1.529   5.526  0.3558  0.6156 -0.4496
   49MOL    C5615512   4.249   1.389   5.514 -0.0447  1.0687  0.2702
   49MOL    C5715513   4.275   1.317   5.635  0.3103 -0.1440 -0.3433
   49MOL    C5815514   4.415   1.354   5.977  0.6285  0.1375  0.0674
   49MOL    H5915515   4.380   1.197   5.837 -0.6786 -1.8947  2.0193
   49MOL    H6015516   4.240   1.576   5.855  1.6944  0.8652 -0.9086
   49MOL    H6115517   4.199   1.595   5.441 -0.6289  0.0657 -0.7862
   49MOL    H6215518   4.253   1.333   5.422  1.4886 -0.4723  1.2473
   49MOL    H6315519   4.309   1.215   5.625 -1.4500 -0.6905 -0.8710
   49MOL    H6415520   4.492   1.411   5.923  0.4004  0.1714 -0.2217
   49MOL    H6515521   4.345   1.424   6.023  0.6008  0.5476 -0.5898
   49MOL    C6615522   4.491   1.269   6.083 -1.0390  0.4502  0.0658
   49MOL    C6715523   4.591   1.182   6.010  0.8943  0.6402 -0.3491
   49MOL    C6815524   4.570   1.042   6.005 -0.6481  0.4288 -0.4194
   49MOL    C6915525   4.656   0.957   5.933  0.2472 -0.0843 -0.1404
   49MOL   Cl7015526   4.629   0.789   5.931 -0.0326  0.1909 -0.0871
   49MOL    C7115527   4.762   1.003   5.859  0.3858  0.2524  0.9272
   49MOL    C7215528   4.786   1.143   5.869 -0.4921 -0.7909  0.4737
   49MOL    C7315529   4.697   1.232   5.940  0.3915 -0.1384 -0.2630
   49MOL    C7415530   4.569   1.341   6.194  0.3250 -0.6353  0.2190
   49MOL    H7515531   4.418   1.202   6.127  1.1043 -1.6428  0.5375
   49MOL    H7615532   4.487   1.002   6.062 -0.9689 -0.9185 -1.8012
   49MOL    H7715533   4.822   0.929   5.808 -1.2147 -0.5612  0.1897
   49MOL    H7815534   4.855   1.202   5.811 -0.6700 -0.7381  0.3185
   49MOL    H7915535   4.721   1.337   5.945 -0.8604  0.0761  2.4277
   49MOL    H8015536   4.641   1.277   6.244 -1.7526 -3.3481 -0.1802
   49MOL    H8115537   4.626   1.419   6.143 -2.2750 -0.1504 -2.0522
   49MOL    C8215538   4.496   1.414   6.307 -0.1695 -0.4653  0.2233
   49MOL    C8315539   4.372   1.495   6.261 -0.7973 -0.6354 -0.2013
   49MOL    C8415540   4.384   1.633   6.229  0.4763 -0.6373  0.0988
   49MOL    C8515541   4.272   1.701   6.181 -0.0479 -0.4396 -0.6901
   49MOL   Cl8615542   4.288   1.870   6.131 -0.0644  0.0939  0.5825
   49MOL    C8715543   4.148   1.631   6.169 -0.3156  0.5605 -0.2869
   49MOL    C8815544   4.130   1.497   6.209  0.0255  0.3247  0.3175
   49MOL    C8915545   4.245   1.435   6.255  0.1765 -0.5400  0.5235
   49MOL    C9015546   4.463   1.318   6.430  0.6168  0.0358  0.1291
   49MOL    H9115547   4.563   1.491   6.346  0.4514 -0.0520 -1.6319
   49MOL    H9215548   4.476   1.690   6.233 -1.2679  2.3151 -0.7075
   49MOL    H9315549   4.057   1.673   6.127 -0.8231 -1.0708 -0.8432
   49MOL    H9415550   4.036   1.446   6.196 -0.2614  1.1139 -0.8235
   49MOL    H9515551   4.236   1.332   6.286  1.6861 -0.3650  1.5877
   49MOL    H9615552   4.382   1.367   6.484  1.5264  0.3498  1.2187
   49MOL    H9715553   4.423   1.224   6.392 -1.7723  0.5941  1.1739
   49MOL    C9815554   4.580   1.301   6.525 -0.4516  0.2825  0.7831
   49MOL    C9915555   4.609   1.428   6.603 -0.9079  0.2144  0.2645
   49MOL   C10015556   4.742   1.468   6.611 -0.1235 -0.7013 -0.3215
   49MOL   C10115557   4.773   1.579   6.689  0.2473 -0.3794 -0.0535
   49MOL  Cl10215558   4.930   1.633   6.691  0.2252 -0.2201 -0.4242
   49MOL   C10315559   4.673   1.641   6.771 -0.7314  0.3886 -0.1525
   49MOL   C10415560   4.545   1.592   6.768  0.1898 -0.2444 -0.2092
   49MOL   C10515561   4.513   1.484   6.688  0.3439 -0.3601  0.3147
   49MOL   C10615562   4.579   1.184   6.627  0.5446  0.0556 -0.4505
   49MOL   H10715563   4.664   1.277   6.460 -0.2431  1.1396  0.7237
   49MOL   H10815564   4.818   1.416   6.555  1.0235  1.0833 -0.4278
   49MOL   H10915565   4.699   1.721   6.839 -0.6466  0.2291  0.0015
   49MOL   H11015566   4.461   1.630   6.824  0.3000 -1.2039  0.6230
   49MOL   H11115567   4.414   1.441   6.692  0.6246 -1.1125 -0.7101
   49MOL   H11215568   4.666   1.193   6.691  0.6722  2.3113 -0.9039
   49MOL   H11315569   4.490   1.191   6.689  1.5774  0.5992  0.9838
   49MOL   C11415570   4.588   1.033   6.575 -0.6563  0.6372 -0.2893
   49MOL   C11515571   4.701   1.030   6.487 -0.0403 -0.6207  0.5198
   49MOL   C11615572   4.827   1.063   6.538 -0.1284 -0.6815  0.7187
   49MOL   C11715573   4.941   1.075   6.456 -0.6160 -0.0963 -0.6672
   49MOL  Cl11815574   5.090   1.120   6.531 -0.3276  0.1784  0.1205
   49MOL   C11915575   4.928   1.050   6.322  0.3321  0.5856  0.6652
   49MOL   C12015576   4.801   1.016   6.262  0.6441 -0.8614 -0.4724
   49MOL   C12115577   4.688   1.008   6.345 -0.5813  1.1689 -0.7455
   49MOL   C12215578   4.608   0.935   6.692 -0.0755  0.5895  0.6724
   49MOL   H12315579   4.504   0.999   6.515 -0.3539  0.4385 -0.5971
   49MOL   H12415580   4.841   1.089   6.642  0.1508  1.2815  0.2220
   49MOL   H12515581   5.011   1.056   6.252  0.5808  0.3465  0.9381
   49MOL   H12615582   4.797   1.006   6.155  2.4227 -1.8250 -0.4790
   49MOL   H12715583   4.592   0.983   6.304 -0.4574  2.8994 -2.1249
   49MOL   H12815584   4.690   0.868   6.668 -0.7401  0.1452 -0.3991
   49MOL   H12915585   4.657   0.981   6.778  0.9319 -1.3684  1.1809
   49MOL   C13015586   4.482   0.868   6.753  0.2382  0.2606  1.1668
   49MOL   C13115587   4.403   0.788   6.645  0.0608 -0.6216 -0.4109
   49MOL   C13215588   4.461   0.730   6.526 -0.1341 -0.3529 -0.5126
   49MOL   C13315589   4.378   0.672   6.433  0.3440 -0.0409  0.5884
   49MOL  Cl13415590   4.451   0.599   6.294  0.2096  0.1265 -0.0460
   49MOL   C13515591   4.238   0.656   6.461  0.0814 -0.7802  0.3699
   49MOL   C13615592   4.178   0.702   6.581  0.4563 -0.1986  0.0887
   49MOL   C13715593   4.262   0.769   6.675  0.0519  0.4414  0.7888
   49MOL   C13815594   4.510   0.795   6.884  0.4763 -0.2255 -0.8537
   49MOL   H13915595   4.423   0.955   6.783 -0.8395 -0.4739  1.2028
   49MOL   H14015596   4.568   0.735   6.510  0.0786 -1.7472  0.4511
   49MOL   H14115597   4.176   0.595   6.396  2.4971 -1.3396 -1.4592
   49MOL   H14215598   4.074   0.676   6.598  0.9497 -2.6885 -0.5801
   49MOL   H14315599   4.216   0.811   6.763  0.1914  1.9319  0.1623
   49MOL   H14415600   4.547   0.854   6.968  0.3833  1.2028 -1.8121
   49MOL   H14515601   4.422   0.756   6.936  1.2410 -1.6381 -0.5797
   49MOL   C14615602   4.603   0.673   6.867 -0.1872  0.1783  0.2016
   49MOL   C14715603   4.748   0.700   6.914 -0.3458 -0.4043  0.4597
   49MOL   C14815604   4.845   0.712   6.816 -0.5447 -0.5372  0.0723
   49MOL   C14915605   4.978   0.742   6.856 -0.0902  0.7286 -0.0246
   49MOL  Cl15015606   5.097   0.749   6.726 -0.0011  0.3253 -0.3906
   49MOL   C15115607   5.008   0.765   6.988 -0.3401 -0.0911  0.2689
   49MOL   C15215608   4.906   0.757   7.081  0.0161  0.0823  0.8645
   49MOL   C15315609   4.777   0.724   7.051 -0.8293  0.6518  0.1667
   49MOL   C15415610   4.549   0.549   6.949  0.5589  0.0543  0.1665
   49MOL   H15515611   4.611   0.644   6.762 -1.0896  2.3674 -0.4839
   49MOL   H15615612   4.828   0.707   6.709  1.0836  0.6483 -0.2697
   49MOL   H15715613   5.111   0.779   7.016 -0.1278  2.3514 -1.6139
   49MOL   H15815614   4.938   0.782   7.181  2.9029  1.6930 -0.3782
   49MOL   H15915615   4.706   0.698   7.128  1.4213  0.7634  2.3307
   49MOL   H16015616   4.626   0.475   6.970 -1.1688 -2.3642 -1.7596
   49MOL   H16115617   4.522   0.583   7.049 -0.7385 -1.0754  0.2026
   49MOL   C16215618   4.432   0.473   6.890 -0.4419 -0.0479 -0.5926
   49MOL   C16315619   4.456   0.413   6.752  0.1329 -0.3783  0.0898
   49MOL   C16415620   4.343   0.368   6.687 -0.4140  0.1123  0.7980
   49MOL   C16515621   4.353   0.320   6.555 -0.2815  0.7380 -0.2498
   49MOL  Cl16615622   4.220   0.252   6.469 -0.1094  0.1876  0.2734
   49MOL   C16715623   4.475   0.327   6.489 -0.0090 -0.8941 -0.0408
   49MOL   C16815624   4.592   0.368   6.557  0.0733  0.4225  0.1564
   49MOL   C16915625   4.579   0.398   6.690 -0.7179 -0.5149 -0.4011
   49MOL   C17015626   4.375   0.379   6.997  0.2593 -0.0853 -0.3412
   49MOL   H17115627   4.354   0.547   6.874  0.4355  1.3569  1.4580
   49MOL   H17215628   4.244   0.379   6.730 -0.0195 -0.0380  1.7502
   49MOL   H17315629   4.480   0.294   6.386  0.3860  0.4497 -0.4590
   49MOL   H17415630   4.689   0.375   6.511 -0.4792  0.4447 -1.0252
   49MOL   H17515631   4.669   0.433   6.738  0.8264 -0.4612 -3.2659
   49MOL   H17615632   4.328   0.294   6.949 -0.2515 -0.0643  0.1217
   49MOL   H17715633   4.450   0.333   7.061  0.3718 -1.8234 -1.7012
   49MOL   C17815634   4.271   0.458   7.086  0.2925 -0.7034 -0.4163
   49MOL   C17915635   4.145   0.493   7.002  0.9634 -0.4625 -0.1087
   49MOL   C18015636   4.097   0.628   6.987 -0.1479  0.1214  0.3895
   49MOL   C18115637   3.974   0.655   6.912 -0.8003 -0.4574 -0.6737
   49MOL  Cl18215638   3.940   0.823   6.887  0.3153  0.0604 -0.3530
   49MOL   C18315639   3.902   0.552   6.843  0.1947  0.3879 -0.4011
   49MOL   C18415640   3.962   0.424   6.858  0.3778  0.2129 -0.5084
   49MOL   C18515641   4.076   0.390   6.940 -0.7215  0.0765  0.7220
   49MOL   C18615642   4.223   0.379   7.209 -0.1799 -0.5897  0.5648
   49MOL   H18715643   4.310   0.555   7.118  2.7595 -1.0472 -2.2353
   49MOL   H18815644   4.145   0.713   7.032 -0.2780  0.2043  0.3722
   49MOL   H18915645   3.817   0.583   6.784 -1.0709  1.8950  2.1541
   49MOL   H19015646   3.906   0.342   6.815  0.6791 -0.7385  0.8792
   49MOL   H19115647   4.106   0.286   6.941 -0.7264  0.0737  0.6073
   49MOL   H19215648   4.138   0.436   7.249 -0.8603 -1.6275  0.6107
   49MOL   H19315649   4.196   0.279   7.175  0.1441  0.1422 -1.9087
   49MOL   C19415650   4.326   0.366   7.326  0.4739 -0.9712 -0.4475
   49MOL   C19515651   4.398   0.496   7.351 -0.3165  0.4665  0.3189
   49MOL   C19615652   4.323   0.607   7.392 -0.1254  0.7105 -0.4683
   49MOL   C19715653   4.388   0.735   7.414  0.6197  0.6845 -1.0124
   49MOL  Cl19815654   4.298   0.873   7.462 -0.0186  0.5845  0.2281
   49MOL   C19915655   4.528   0.741   7.406  0.3471  0.1872 -0.3350
   49MOL   C20015656   4.605   0.628   7.365  0.6940  0.9764 -0.8676
   49MOL   C20115657   4.536   0.507   7.338 -0.2317 -0.1414 -0.4445
   49MOL   C20215658   4.267   0.291   7.448  0.1537  0.0589 -0.0532
   49MOL   H20315659   4.409   0.307   7.289  1.8416  0.3836  0.3996
   49MOL   H20415660   4.215   0.607   7.398 -0.0480  2.3672  1.4587
   49MOL   H20515661   4.585   0.829   7.434  1.4275 -0.2298 -1.1793
   49MOL   H20615662   4.712   0.635   7.354  0.7249 -1.6325 -2.7993
   49MOL   H20715663   4.588   0.419   7.303  1.0030  0.8401 -1.1224
   49MOL   H20815664   4.334   0.295   7.534 -0.0249  1.0593  0.0473
   49MOL   H20915665   4.184   0.341   7.498  0.2264 -1.0820  1.2498
   49MOL   C21015666   4.249   0.141   7.430  0.0352 -0.1424 -0.3697
   49MOL   C21115667   4.378   0.069   7.413 -0.3546 -0.1500 -0.0427
   49MOL   C21215668   4.425   0.029   7.286  0.3240  0.2453 -0.0064
   49MOL   C21315669   4.541   8.384   7.270  0.0629  0.0152  0.5175
   49MOL  Cl21415670   4.596   8.353   7.107  0.2849 -0.3643 -0.2009
   49MOL   C21515671   4.601   8.334   7.388 -0.0772 -1.4108  0.3574
   49MOL   C21615672   4.573   8.384   7.513 -0.1572 -0.3717  0.2463
   49MOL   C21715673   4.459   0.035   7.527  0.7819  0.4145  0.1217
   49MOL   C21815674   4.176   0.084   7.548 -0.0563 -0.4439 -0.2602
   49MOL   H21915675   4.190   0.110   7.344 -2.3698  0.1107  1.1216
   49MOL   H22015676   4.381   0.055   7.191  3.2054 -0.9053 -1.7180
   49MOL   H22115677   4.681   8.261   7.382  0.5998 -0.4988 -2.2515
   49MOL   H22215678   4.637   8.367   7.598 -0.0825  0.4038  0.3476
   49MOL   H22315679   4.434   0.074   7.624 -2.5400 -1.8140  0.2418
   49MOL   H22415680   4.199   8.413   7.558  2.2909 -0.1480 -2.1656
   49MOL   H22515681   4.210   0.117   7.646 -0.3309 -1.3581  0.1463
   49MOL   C22615682   4.019   0.107   7.553 -0.1661  0.2603  0.3892
   49MOL   C22715683   3.947   0.116   7.418  0.1602 -0.1599  0.1144
   49MOL   C22815684   3.906   0.242   7.378 -0.7256 -0.7310 -0.0344
   49MOL   C22915685   3.839   0.261   7.248  0.2142  0.6531 -0.6138
   49MOL  Cl23015686   3.790   0.420   7.199 -0.4282  0.1698  0.1276
   49MOL   C23115687   3.815   0.148   7.168  0.0059  0.0646 -0.7451
   49MOL   C23215688   3.862   0.019   7.214  0.5869  0.0094 -0.2734
   49MOL   C23315689   3.928   0.004   7.341  0.4168  0.4640  0.6965
   49MOL   C23415690   3.969   8.434   7.656  0.5146 -0.0243  0.0578
   49MOL   H23515691   4.007   0.207   7.594  2.1405 -0.4622  3.0056
   49MOL   H23615692   3.924   0.326   7.443 -0.5960 -2.4809  2.2476
   49MOL   H23715693   3.760   0.157   7.075 -0.8514  0.9315 -0.1583
   49MOL   H23815694   3.863   8.373   7.142  0.8626  0.2765 -0.5725
   49MOL   H23915695   3.968   8.342   7.365 -1.0708 -0.3269  0.0742
   49MOL   H24015696   3.972   8.329   7.626  0.9596  0.1273 -0.4314
   49MOL   H24115697   4.035   0.016   7.741 -0.0201  2.4448 -0.0026
   49MOL   C24215698   3.828   0.021   7.717  0.1206 -0.4253 -0.3798
   49MOL   C24315699   3.727   8.398   7.614  0.5594 -0.0296  0.5794
   49MOL   C24415700   3.718   8.260   7.581 -0.0755  0.6733  0.5861
   49MOL   C24515701   3.650   8.220   7.458 -0.0720  0.7878  0.2209
   49MOL  Cl24615702   3.672   8.063   7.385  0.0728  0.0222  0.1763
   49MOL   C24715703   3.563   8.318   7.395 -1.0821 -0.0187 -0.2219
   49MOL   C24815704   3.553   0.010   7.447 -0.3481  0.1755  0.0465
   49MOL   C24915705   3.639   0.052   7.551 -0.9716 -0.0553 -0.0379
   49MOL   C25015706   3.819   8.379   7.853  0.5109  1.1362 -0.0454
   49MOL   H25115707   3.835   0.129   7.726  1.0296 -0.4839 -0.3172
   49MOL   H25215708   3.774   8.185   7.636 -1.9429 -2.7442 -1.9872
   49MOL   H25315709   3.517   8.293   7.300 -0.5671  2.2651 -1.1097
   49MOL   H25415710   3.488   0.082   7.400  2.5488  1.6063 -1.9133
   49MOL   H25515711   3.649   0.157   7.573 -1.1215  0.2820 -1.4850
   49MOL   H25615712   3.841   8.274   7.837  3.0766  1.6789 -0.3371
   49MOL   H25715713   3.909   8.401   7.911  1.6115 -2.4038 -0.3038
   49MOL   C25815714   3.697   8.393   7.938  0.0840 -1.2216  0.8716
   49MOL   C25915715   3.697   8.282   8.045 -0.8341 -0.3840 -0.1637
   49MOL   C26015716   3.743   8.307   8.174  0.4462 -0.0815 -0.6535
   49MOL   C26115717   3.748   8.201   8.268 -0.3065 -0.1029 -0.0021
   49MOL  Cl26215718   3.786   8.239   0.001 -0.5253 -0.0298  0.3187
   49MOL   C26315719   3.709   8.073   8.240  0.0787 -0.4510  0.1420
   49MOL   C26415720   3.657   8.046   8.112 -0.8058  0.0605  0.8378
   49MOL   C26515721   3.662   8.151   8.013 -0.1402 -0.2081 -0.1775
   49MOL   C26615722   3.656   0.108   7.977  0.2770 -0.0534 -0.1776
   49MOL   H26715723   3.614   8.364   7.873  0.3574  0.5933 -0.3292
   49MOL   H26815724   3.781   8.405   8.200 -1.1894  0.9178 -1.9459
   49MOL   H26915725   3.697   7.994   8.313  1.1820 -0.5138  0.2582
   49MOL   H27015726   3.623   7.944   8.097 -0.0348 -0.1303  0.3174
   49MOL   H27115727   3.617   8.131   7.917 -0.9017  0.1174  0.1072
   49MOL   H27215728   3.743   0.155   8.025 -0.0006 -0.3541  0.6229
   49MOL   H27315729   3.647   0.160   7.882  1.7951  2.2096  0.8693
   49MOL   C27415730   3.527   0.128   8.055  0.4265  0.0468  0.3353
   49MOL   C27515731   3.555   0.117   8.208  0.2676 -0.9869  0.1538
   49MOL   C27615732   3.496   0.011   8.275  0.3861  0.8781  0.9437
   49MOL   C27715733   3.496   0.006   8.414 -0.0483 -0.0139  0.6438
   49MOL  Cl27815734   3.428   8.307   0.059  0.0644 -0.2811 -0.2074
   49MOL   C27915735   3.555   0.111   0.052 -0.6789  0.5040  0.7477
   49MOL   C28015736   3.608   0.223   8.423  0.6382  0.5992  0.0010
   49MOL   C28115737   3.616   0.219   8.283  0.1576 -0.0821 -0.1229
   49MOL   C28215738   3.457   0.259   8.013  0.1965  0.5142  0.3222
   49MOL   H28315739   3.467   0.046   8.016  1.6925 -0.6255 -0.2301
   49MOL   H28415740   3.433   8.373   8.227 -0.3916  0.7914  2.0753
   49MOL   H28515741   3.547   0.113   0.159 -0.1224  4.6114  0.7676
   49MOL   H28615742   3.652   0.312   0.030 -0.3011  0.8557  0.4550
   49MOL   H28715743   3.651   0.308   8.232 -2.4187  0.9682 -0.1114
   49MOL   H28815744   3.532   0.337   7.995  0.1974  0.4500  0.0451
   49MOL   H28915745   3.418   0.248   7.912  1.9361  0.3516 -0.3536
   49MOL   C29015746   3.343   0.306   8.099  0.2902  0.3156 -0.1662
   49MOL   C29115747   3.286   0.440   8.055  0.0031 -0.2692  0.2469
   49MOL   C29215748   3.288   0.562   8.136  0.5168 -0.4400 -0.2871
   49MOL   C29315749   3.239   0.685   8.084  0.3148  0.4307 -0.2219
   49MOL  Cl29415750   3.227   0.812   8.195 -0.2925 -0.4238  0.1369
   49MOL   C29515751   3.172   0.691   7.958  0.0168 -0.0586 -0.2245
   49MOL   C29615752   3.173   0.572   7.877 -0.1283  0.0062  0.1572
   49MOL   C29715753   3.227   0.447   7.924 -0.1841 -0.4559  0.5289
   49MOL   C29815754   3.227   0.205   8.116  0.4121  0.7182  0.3066
   49MOL   H29915755   3.389   0.339   8.193  1.0195  1.9046 -1.0630
   49MOL   H30015756   3.342   0.558   8.229  0.4044  2.2305 -0.0666
   49MOL   H30115757   3.111   0.776   7.930 -0.6069 -0.3642  0.2023
   49MOL   H30215758   3.112   0.576   7.788  0.9003 -2.9591 -0.7284
   49MOL   H30315759   3.212   0.355   7.870  0.5842  0.5273 -1.4218
   49MOL   H30415760   3.214   0.157   8.019 -2.4823 -1.6373  1.7720
   49MOL   H30515761   3.266   0.126   8.180 -0.2696 -0.6002 -0.8613
   49MOL   C30615762   3.087   0.240   8.176 -0.7309 -0.1261 -0.1467
   49MOL   C30715763   2.984   0.124   8.173 -0.3523  0.2401  0.6395
   49MOL   C30815764   3.024   8.426   8.201 -0.4882  0.1453 -0.8033
   49MOL   C30915765   2.930   8.325   8.218  1.0706  0.1431  0.3549
   49MOL  Cl31015766   2.984   8.169   8.269  0.3772  0.0646  0.0444
   49MOL   C31115767   2.798   8.352   8.178  0.2736  0.8884 -0.1140
   49MOL   C31215768   2.757   0.037   8.142 -0.0456  0.4647 -0.0162
   49MOL   C31315769   2.846   0.148   8.141  0.0865  0.1732  0.4445
   49MOL   C31415770   3.097   0.288   8.319  0.3266  0.3667  0.1390
   49MOL   H31515771   3.041   0.314   8.111  1.4092  2.1414  0.8346
   49MOL   H31615772   3.123   8.406   8.238 -0.3898 -1.4449 -1.8950
   49MOL   H31715773   2.733   8.267   8.191  0.7240  0.4681 -0.6190
   49MOL   H31815774   2.656   0.050   8.108 -0.0180  0.2974 -0.1597
   49MOL   H31915775   2.805   0.245   8.116  0.1666  0.1493  0.2211
   49MOL   H32015776   3.003   0.308   8.370 -1.1235 -2.3075 -1.4015
   49MOL   H32115777   3.139   0.205   8.377 -0.2763  1.6147  2.4020
   49MOL   H32215778   3.157   0.379   8.329  0.9329 -0.1481  1.3779
   50MOL     C115779   4.425   5.579   2.534  1.2910  0.0237  0.4719
   50MOL     C215780   4.372   5.500   2.657 -0.0857  0.1833  0.4393
   50MOL     C315781   4.387   5.365   2.661  0.4336  0.0036 -0.6816
   50MOL     C415782   4.332   5.289   2.768 -0.1431 -0.1699 -0.0889
   50MOL    Cl515783   4.333   5.117   2.771 -0.0856 -0.0321 -0.3101
   50MOL     C615784   4.280   5.366   2.876  0.1346 -1.1035 -0.4575
   50MOL     C715785   4.268   5.502   2.874 -0.4110 -0.8451 -0.3711
   50MOL     C815786   4.317   5.571   2.764  0.2951 -0.4132  0.0747
   50MOL     C915787   4.302   5.630   2.454  0.0395 -0.3527 -0.2133
   50MOL    H1015788   4.496   5.512   2.486 -0.1936 -2.3925  1.5602
   50MOL    H1115789   4.429   5.319   2.573 -0.0071 -3.3106  0.7847
   50MOL    H1215790   4.237   5.308   2.956 -0.6454 -0.8442 -0.6905
   50MOL    H1315791   4.224   5.554   2.958  0.1522 -0.0879 -0.5346
   50MOL    H1415792   4.312   5.678   2.769  2.0873 -0.2123 -1.9684
   50MOL    H1515793   4.209   5.603   2.504  0.2869 -0.5289  0.1578
   50MOL    H1615794   4.308   5.739   2.458 -0.6261 -0.3743  2.0781
   50MOL    H1715795   4.477   5.669   2.566  1.1033 -0.4132  2.0638
   50MOL    C1815796   4.293   5.586   2.307 -0.0025  0.4589  0.9077
   50MOL    C1915797   4.323   5.436   2.296 -0.2247  0.5790  0.3293
   50MOL    C2015798   4.243   5.341   2.355 -0.7775  0.5275  0.3340
   50MOL    C2115799   4.282   5.206   2.369  0.3274  0.5635  0.2222
   50MOL   Cl2215800   4.180   5.104   2.464  0.2607 -0.3768  0.1800
   50MOL    C2315801   4.403   5.167   2.317  0.5755 -0.0246  0.2098
   50MOL    C2415802   4.483   5.262   2.246  0.0031  0.6104 -0.0134
   50MOL    C2515803   4.443   5.393   2.233 -0.7073  0.0293  1.0753
   50MOL    C2615804   4.163   5.627   2.242 -0.1718  0.2278  0.0804
   50MOL    H2715805   4.372   5.650   2.266 -0.1816  0.4379  0.5270
   50MOL    H2815806   4.148   5.372   2.397 -0.9558  1.3093 -0.6426
   50MOL    H2915807   4.442   5.067   2.334  0.1662 -0.0984  0.7187
   50MOL    H3015808   4.579   5.224   2.214  0.3136  2.6227 -1.5642
   50MOL    H3115809   4.513   5.457   2.181 -0.9116 -0.9116 -0.3597
   50MOL    H3215810   4.159   5.595   2.138 -2.5704  0.7524 -0.0175
   50MOL    H3315811   4.080   5.571   2.284 -0.2967 -1.1619 -1.9635
   50MOL    C3415812   4.142   5.781   2.246 -0.2174 -0.3971  0.2076
   50MOL    C3515813   4.245   5.861   2.162  0.0313  0.0333 -0.0851
   50MOL    C3615814   4.293   5.821   2.035  0.3857 -0.5494 -0.7807
   50MOL    C3715815   4.381   5.908   1.964 -0.3724  0.4018  0.5608
   50MOL   Cl3815816   4.447   5.851   1.813  0.1374 -0.3934  0.4627
   50MOL    C3915817   4.431   6.027   2.018  0.3820 -0.3315 -0.8436
   50MOL    C4015818   4.379   6.067   2.148 -0.6760  0.5002  0.4663
   50MOL    C4115819   4.286   5.985   2.216 -0.0220 -0.3181 -0.3652
   50MOL    C4215820   3.998   5.834   2.220 -0.3577  0.0188  0.2615
   50MOL    H4315821   4.162   5.815   2.347  0.3468 -1.0395  0.3136
   50MOL    H4415822   4.262   5.730   1.985 -2.1864  0.3877 -0.9739
   50MOL    H4515823   4.507   6.083   1.964 -1.2963  2.8740 -0.0500
   50MOL    H4615824   4.407   6.167   2.178  2.0048  0.1135 -0.5922
   50MOL    H4715825   4.253   6.014   2.315 -1.9971 -3.7446  0.0537
   50MOL    H4815826   4.000   5.942   2.234  0.0053  0.2671 -1.5541
   50MOL    H4915827   3.970   5.830   2.114  1.4659  1.6577 -0.3148
   50MOL    C5015828   3.881   5.765   2.303 -0.2583 -0.5576 -0.6600
   50MOL    C5115829   3.918   5.737   2.446  0.6492 -0.2884 -0.1646
   50MOL    C5215830   3.930   5.605   2.500 -0.4101 -0.3396  0.0107
   50MOL    C5315831   3.972   5.572   2.630  0.1221 -0.9184 -0.2115
   50MOL   Cl5415832   3.987   5.408   2.683  0.2213 -0.1558  0.0100
   50MOL    C5515833   3.990   5.680   2.720  0.1659 -0.5196 -0.0517
   50MOL    C5615834   3.981   5.813   2.677  0.0230  0.6404  0.1147
   50MOL    C5715835   3.942   5.840   2.542 -0.2447  0.7282  0.9461
   50MOL    C5815836   3.753   5.849   2.287  0.7820  0.3045  0.4197
   50MOL    H5915837   3.865   5.668   2.256 -1.2485  0.0260 -1.5474
   50MOL    H6015838   3.914   5.522   2.433 -1.9591  1.0178 -1.3385
   50MOL    H6115839   4.023   5.662   2.821  1.6819 -0.5524 -0.5392
   50MOL    H6215840   4.010   5.889   2.748  1.5127 -1.2523  1.5880
   50MOL    H6315841   3.933   5.946   2.528 -0.5576  1.0941  3.5201
   50MOL    H6415842   3.775   5.955   2.289  3.3258 -0.1027 -2.2875
   50MOL    H6515843   3.723   5.845   2.182  2.0380  1.0947  0.0249
   50MOL    C6615844   3.631   5.819   2.375 -0.0848  0.1654 -0.2208
   50MOL    C6715845   3.531   5.933   2.362 -0.2178  0.0259 -0.2305
   50MOL    C6815846   3.481   6.002   2.476 -0.3834 -0.4002  0.4692
   50MOL    C6915847   3.375   6.093   2.477 -0.4020 -0.0357  0.1241
   50MOL   Cl7015848   3.305   6.157   2.619  0.0837 -0.3440  0.1221
   50MOL    C7115849   3.319   6.125   2.353  0.6665  0.0650  0.0957
   50MOL    C7215850   3.360   6.057   2.237  0.0109  0.5191 -0.4471
   50MOL    C7315851   3.464   5.955   2.243  0.4371 -0.2429  0.2137
   50MOL    C7415852   3.563   5.682   2.342  0.0293 -0.0708 -0.2943
   50MOL    H7515853   3.667   5.834   2.477 -0.0628  0.8137 -0.3267
   50MOL    H7615854   3.529   5.988   2.572 -3.7992  0.0969  2.3249
   50MOL    H7715855   3.233   6.188   2.336  0.4803 -0.9572 -3.1661
   50MOL    H7815856   3.300   6.063   2.148  1.6718  0.6479 -1.5862
   50MOL    H7915857   3.497   5.903   2.155 -1.1076 -4.0110  1.7774
   50MOL    H8015858   3.465   5.688   2.295 -0.6870  1.0484  1.2786
   50MOL    H8115859   3.621   5.636   2.262 -2.0726  1.3382 -2.6994
   50MOL    C8215860   3.565   5.580   2.456  0.0796 -0.4166  0.0752
   50MOL    C8315861   3.529   5.648   2.587 -0.1402 -0.2351 -0.2613
   50MOL    C8415862   3.619   5.655   2.696 -0.7929 -0.8343 -0.1831
   50MOL    C8515863   3.591   5.737   2.813 -0.9967 -0.1060  0.1513
   50MOL   Cl8615864   3.697   5.759   2.942  0.2639 -0.0334  0.0668
   50MOL    C8715865   3.471   5.807   2.820  0.0202  0.2400 -0.6353
   50MOL    C8815866   3.376   5.791   2.714  0.0854 -0.5365  0.7584
   50MOL    C8915867   3.403   5.716   2.597  0.1077  0.4232  0.1794
   50MOL    C9015868   3.477   5.453   2.431  0.1533 -1.0145 -0.6224
   50MOL    H9115869   3.663   5.535   2.474  0.0759 -0.4192  0.0896
   50MOL    H9215870   3.709   5.595   2.700  0.8354  1.5924  1.1262
   50MOL    H9315871   3.450   5.864   2.909  0.5267  1.5155 -1.3202
   50MOL    H9415872   3.288   5.852   2.701  0.5278  0.0960  0.6791
   50MOL    H9515873   3.349   5.720   2.503 -0.3920 -1.6362  0.3582
   50MOL    H9615874   3.468   5.401   2.526 -1.0931 -1.6345 -1.0637
   50MOL    H9715875   3.376   5.493   2.424  0.2403 -0.5193  0.8069
   50MOL    C9815876   3.495   5.354   2.305  1.0731  0.3726  0.8464
   50MOL    C9915877   3.638   5.331   2.267 -0.1335 -0.4292  0.7957
   50MOL   C10015878   3.682   5.320   2.129  0.3259 -1.3026 -1.0803
   50MOL   C10115879   3.809   5.271   2.099 -0.3750 -0.7876 -1.1080
   50MOL  Cl10215880   3.849   5.261   1.934 -0.1449  0.3892  0.2882
   50MOL   C10315881   3.901   5.244   2.201 -0.7079 -0.0140  0.6725
   50MOL   C10415882   3.860   5.251   2.338 -0.4480 -0.1153 -0.2410
   50MOL   C10515883   3.729   5.289   2.370  0.3481  0.1221  0.2246
   50MOL   C10615884   3.412   5.224   2.325 -0.7014 -0.2325  0.3398
   50MOL   H10715885   3.462   5.412   2.220 -0.4751 -0.7307  0.6772
   50MOL   H10815886   3.620   5.335   2.042  0.9017 -0.7269 -1.3936
   50MOL   H10915887   4.005   5.225   2.179 -1.7701 -3.0866 -2.0310
   50MOL   H11015888   3.925   5.225   2.420  0.4912 -1.0526 -1.2496
   50MOL   H11115889   3.692   5.286   2.471 -2.1297  1.4344 -0.6184
   50MOL   H11215890   3.449   5.144   2.261 -3.3261 -1.0895 -0.2036
   50MOL   H11315891   3.441   5.180   2.420  3.0790  0.7622 -0.2641
   50MOL   C11415892   3.263   5.247   2.313 -0.3393  0.6325 -0.1705
   50MOL   C11515893   3.208   5.208   2.172  0.1459 -0.3112 -0.6569
   50MOL   C11615894   3.231   5.073   2.119 -0.0816 -0.5675  0.6950
   50MOL   C11715895   3.184   5.043   1.988 -1.0901  0.1058 -0.6246
   50MOL  Cl11815896   3.184   4.884   1.926 -0.0007  0.3536  0.5133
   50MOL   C11915897   3.121   5.143   1.909 -0.0910 -0.2240 -0.9003
   50MOL   C12015898   3.089   5.268   1.967  0.4864 -0.0785  0.1733
   50MOL   C12115899   3.136   5.300   2.094 -0.2980 -0.5815  0.1750
   50MOL   C12215900   3.171   5.194   2.431  0.0060  0.3333 -0.0099
   50MOL   H12315901   3.257   5.356   2.313  2.6198  0.8137  0.0224
   50MOL   H12415902   3.261   4.989   2.180 -0.8903 -1.7557 -0.5048
   50MOL   H12515903   3.083   5.120   1.811  0.6604 -3.1742 -0.5485
   50MOL   H12615904   3.027   5.340   1.915 -0.2706 -1.5984 -1.0731
   50MOL   H12715905   3.112   5.397   2.133  1.8959 -0.8216  2.2064
   50MOL   H12815906   3.181   5.087   2.448  2.0486  0.3057 -1.1710
   50MOL   H12915907   3.217   5.248   2.513 -0.2937 -1.8893  1.6821
   50MOL   C13015908   3.021   5.236   2.434  0.4925  0.5244  0.7636
   50MOL   C13115909   2.930   5.159   2.335  0.4080  0.1690  0.2209
   50MOL   C13215910   2.824   5.231   2.265 -0.2357 -0.1945 -0.2305
   50MOL   C13315911   2.748   5.155   2.169 -0.2673  0.2985  0.3443
   50MOL  Cl13415912   2.616   5.225   2.084  0.0957 -0.3305  0.1456
   50MOL   C13515913   2.777   5.019   2.145  0.5493  0.0312  0.6270
   50MOL   C13615914   2.878   4.957   2.215  0.0795  0.1452  0.0541
   50MOL   C13715915   2.945   5.019   2.321 -0.3442  0.0821 -0.7493
   50MOL   C13815916   2.964   5.242   2.579 -0.2085  0.8381 -0.1962
   50MOL   H13915917   3.012   5.339   2.399  0.7981 -0.1297 -1.3569
   50MOL   H14015918   2.800   5.333   2.292  1.6132  0.1611  0.1641
   50MOL   H14115919   2.719   4.959   2.076 -0.2043  0.0686  1.2143
   50MOL   H14215920   2.898   4.854   2.189 -0.3840  0.3821 -1.3225
   50MOL   H14315921   3.025   4.977   2.380  0.8211  2.7667 -0.3084
   50MOL   H14415922   2.855   5.250   2.585 -0.2117  0.7099 -0.0749
   50MOL   H14515923   2.986   5.148   2.629 -1.5052 -0.1182 -1.3821
   50MOL   C14615924   3.020   5.359   2.666  0.5877  0.0876 -0.0871
   50MOL   C14715925   2.981   5.498   2.607  0.1652  0.3070  0.3602
   50MOL   C14815926   3.065   5.577   2.522 -0.2051 -0.3832  0.7808
   50MOL   C14915927   3.018   5.689   2.467  0.4907  0.7320  0.5565
   50MOL  Cl15015928   3.127   5.772   2.366 -0.3065  0.4839 -0.1378
   50MOL   C15115929   2.893   5.742   2.492 -0.2242  0.0399 -0.5761
   50MOL   C15215930   2.806   5.675   2.581  0.3788  0.6823 -0.4279
   50MOL   C15315931   2.851   5.549   2.627  0.6840 -0.3330 -0.4419
   50MOL   C15415932   2.990   5.337   2.814  0.9236 -0.1394 -0.0628
   50MOL   H15515933   3.129   5.353   2.670  0.6568  1.3974  0.5390
   50MOL   H15615934   3.171   5.561   2.512  0.1302  1.0678  1.7425
   50MOL   H15715935   2.866   5.835   2.445 -4.7733 -1.0778 -0.4467
   50MOL   H15815936   2.705   5.710   2.594  0.2821 -0.4724  2.2724
   50MOL   H15915937   2.776   5.494   2.682  3.8824 -3.4160  0.9816
   50MOL   H16015938   2.882   5.348   2.822  0.8502 -0.5435 -0.4909
   50MOL   H16115939   3.017   5.235   2.842  0.8265 -0.4157 -0.9853
   50MOL   C16215940   3.066   5.434   2.915  0.1356  0.2063 -0.7655
   50MOL   C16315941   2.988   5.567   2.920 -1.0510  0.1529  0.1001
   50MOL   C16415942   2.852   5.566   2.963 -0.2430 -0.1984 -0.5747
   50MOL   C16515943   2.775   5.681   2.970 -0.3542 -0.2698  0.2191
   50MOL  Cl16615944   2.609   5.697   3.016 -0.3385  0.3064 -0.0390
   50MOL   C16715945   2.834   5.798   2.925  0.2173 -0.1700  0.6636
   50MOL   C16815946   2.968   5.803   2.877 -0.3790  0.0661  0.0078
   50MOL   C16915947   3.042   5.687   2.873  0.0964 -0.1764  0.3092
   50MOL   C17015948   3.097   5.369   3.057 -0.2900 -0.6559 -0.2707
   50MOL   H17115949   3.169   5.448   2.884  0.5543 -1.6578 -0.2695
   50MOL   H17215950   2.807   5.475   2.999 -0.3862  0.3841  0.7391
   50MOL   H17315951   2.771   5.885   2.921  1.6854  0.9129  0.5358
   50MOL   H17415952   3.008   5.897   2.842  1.9436 -0.9970 -0.2592
   50MOL   H17515953   3.139   5.694   2.826  0.2919  2.3379  1.0173
   50MOL   H17615954   3.115   5.457   3.118  0.8071  0.0822 -1.6359
   50MOL   H17715955   3.001   5.326   3.087 -0.0119 -1.3584 -0.3754
   50MOL   C17815956   3.206   5.270   3.065 -0.1334  0.2365  0.0132
   50MOL   C17915957   3.339   5.329   3.023  0.6681  0.3641  0.1328
   50MOL   C18015958   3.414   5.263   2.925  0.2604  0.2045  0.0078
   50MOL   C18115959   3.536   5.310   2.893  0.7924 -0.0285  0.4731
   50MOL  Cl18215960   3.609   5.232   2.765  0.3057 -0.1236 -0.2763
   50MOL   C18315961   3.588   5.421   2.964 -0.2839  0.1506  0.2120
   50MOL   C18415962   3.514   5.495   3.056 -0.2662 -0.2945 -0.2773
   50MOL   C18515963   3.388   5.445   3.087 -0.2011 -0.0336 -0.3772
   50MOL   C18615964   3.218   5.210   3.203 -0.0606  0.4595  0.1396
   50MOL   H18715965   3.190   5.190   2.994 -0.4347  0.8882 -0.6593
   50MOL   H18815966   3.380   5.165   2.895 -1.7313  0.3405  1.6898
   50MOL   H18915967   3.687   5.455   2.939  0.2363 -0.7419  1.0761
   50MOL   H19015968   3.561   5.580   3.102 -0.2015 -0.4029 -0.1463
   50MOL   H19115969   3.323   5.496   3.157 -1.5805 -1.8501 -0.2838
   50MOL   H19215970   3.278   5.266   3.275  0.0273 -0.9496  1.1685
   50MOL   H19315971   3.119   5.199   3.247  0.9295  0.4781  2.4543
   50MOL   C19415972   3.275   5.062   3.209  0.4742 -0.2023  0.1777
   50MOL   C19515973   3.423   5.039   3.186 -0.9374 -0.0842  0.3047
   50MOL   C19615974   3.522   5.129   3.226  0.4261  0.3238 -0.0941
   50MOL   C19715975   3.652   5.113   3.192  0.0912  0.0621  0.0475
   50MOL  Cl19815976   3.768   5.235   3.213 -0.1963 -0.0231  0.0845
   50MOL   C19915977   3.693   4.993   3.141  0.0585 -0.1591  0.3268
   50MOL   C20015978   3.601   4.887   3.127 -0.4420  0.3153 -0.6203
   50MOL   C20115979   3.465   4.915   3.141 -0.4211  0.1508  0.1795
   50MOL   C20215980   3.220   4.981   3.328 -0.3115 -0.3226 -0.3846
   50MOL   H20315981   3.238   5.010   3.121 -0.5797 -1.8809  1.5854
   50MOL   H20415982   3.490   5.225   3.264  0.6328 -0.2015  1.4003
   50MOL   H20515983   3.799   4.979   3.127  0.4207  2.8729 -0.1177
   50MOL   H20615984   3.638   4.796   3.081 -0.7323  0.5830 -1.3771
   50MOL   H20715985   3.399   4.831   3.126 -0.9860  0.3798  1.3493
   50MOL   H20815986   3.113   4.971   3.307 -0.7088 -1.1547  1.8700
   50MOL   H20915987   3.255   4.878   3.325 -1.8423 -0.8889  0.5211
   50MOL   C21015988   3.233   5.032   3.476  0.2320  0.0555 -0.1053
   50MOL   C21115989   3.119   4.978   3.561 -0.7432 -0.2502  0.3636
   50MOL   C21215990   3.050   5.064   3.646 -0.3354  0.2771 -0.4163
   50MOL   C21315991   2.945   5.026   3.733  0.6834 -0.2587  0.3511
   50MOL  Cl21415992   2.880   5.136   3.845 -0.1331 -0.3352  0.1489
   50MOL   C21515993   2.904   4.893   3.725  0.6628 -0.0754  0.2281
   50MOL   C21615994   2.974   4.797   3.645  0.4012 -0.3094  0.1294
   50MOL   C21715995   3.082   4.840   3.564 -0.5839 -0.5545 -0.7613
   50MOL   C21815996   3.367   5.000   3.539  1.0281 -0.7219 -0.2474
   50MOL   H21915997   3.220   5.140   3.472 -1.4595 -0.2047 -3.2912
   50MOL   H22015998   3.086   5.165   3.652  0.3735  0.1192 -1.7694
   50MOL   H22115999   2.823   4.859   3.788  0.8146 -0.2347  0.3379
   50MOL   H22216000   2.941   4.695   3.638  0.5135 -0.2145 -1.7796
   50MOL   H22316001   3.135   4.766   3.506 -1.3198 -1.0909 -0.7530
   50MOL   H22416002   3.357   4.950   3.635  1.3826  1.7987  1.1156
   50MOL   H22516003   3.416   4.923   3.478 -0.0147 -0.0912 -1.9306
   50MOL   C22616004   3.460   5.122   3.569  0.0144  0.1025 -0.0990
   50MOL   C22716005   3.389   5.237   3.632  0.5333  0.5282 -0.4729
   50MOL   C22816006   3.327   5.219   3.764 -0.2842 -0.0690 -0.1841
   50MOL   C22916007   3.266   5.326   3.834 -0.0270  0.0532  0.2046
   50MOL  Cl23016008   3.206   5.305   3.991 -0.1504 -0.3652  0.1344
   50MOL   C23116009   3.269   5.455   3.775  0.2949 -0.4600  0.1464
   50MOL   C23216010   3.332   5.472   3.649 -0.3009 -0.5545  0.1664
   50MOL   C23316011   3.390   5.369   3.576  0.0479  0.1802 -0.2859
   50MOL   C23416012   3.575   5.070   3.652 -0.0398  0.3952 -0.1920
   50MOL   H23516013   3.507   5.161   3.479 -0.5998  2.9693  0.7785
   50MOL   H23616014   3.315   5.124   3.814  0.2093 -0.0194  0.0274
   50MOL   H23716015   3.223   5.535   3.831 -0.4339 -0.1922 -0.8097
   50MOL   H23816016   3.333   5.573   3.610 -0.8454 -0.8883 -0.7257
   50MOL   H23916017   3.445   5.402   3.489  0.3822  2.0312  0.5862
   50MOL   H24016018   3.525   5.017   3.733  2.5801 -0.6424  0.8132
   50MOL   H24116019   3.632   4.999   3.591 -0.6965 -0.3308  0.0327
   50MOL   C24216020   3.671   5.169   3.715  0.4713 -0.3733  0.1605
   50MOL   C24316021   3.776   5.087   3.798 -0.1601  0.0154 -0.3103
   50MOL   C24416022   3.904   5.046   3.745 -0.9235 -0.5667 -0.6649
   50MOL   C24516023   3.989   4.969   3.834  0.3530  0.4612  0.1663
   50MOL  Cl24616024   4.151   4.929   3.795 -0.1040 -0.0729 -0.2633
   50MOL   C24716025   3.954   4.927   3.961  0.3787  0.3002  0.2199
   50MOL   C24816026   3.826   4.974   4.009 -0.0222 -1.1030 -0.0647
   50MOL   C24916027   3.739   5.054   3.932  0.5588  0.2761 -0.0070
   50MOL   C25016028   3.740   5.272   3.617 -0.6623 -0.0150  0.0797
   50MOL   H25116029   3.616   5.234   3.782 -1.6877 -1.2897 -0.6925
   50MOL   H25216030   3.947   5.074   3.650  0.2568 -1.9865 -0.5654
   50MOL   H25316031   4.025   4.883   4.029  2.5417  0.8099 -1.6353
   50MOL   H25416032   3.805   4.936   4.107  0.5696 -1.1566  0.0443
   50MOL   H25516033   3.653   5.081   3.992  1.1324 -0.2553  1.0703
   50MOL   H25616034   3.781   5.210   3.537 -1.2922 -0.0924 -0.1847
   50MOL   H25716035   3.666   5.342   3.579  1.0682  0.7780 -1.9646
   50MOL   C25816036   3.858   5.353   3.664  0.0167 -0.3271 -0.5452
   50MOL   C25916037   3.905   5.454   3.558 -0.0502  0.5881  0.2924
   50MOL   C26016038   4.041   5.465   3.533  0.0437  0.2069  0.2418
   50MOL   C26116039   4.091   5.555   3.436  1.1010  0.1470 -0.0007
   50MOL  Cl26216040   4.258   5.557   3.403 -0.2871  0.1286 -0.1004
   50MOL   C26316041   4.004   5.625   3.344  0.6392  0.1436  0.0655
   50MOL   C26416042   3.867   5.615   3.374  1.1247 -0.0836 -0.3919
   50MOL   C26516043   3.820   5.538   3.485 -0.2489 -0.0568  0.3990
   50MOL   C26616044   3.834   5.428   3.804 -1.2695 -0.6547 -0.1114
   50MOL   H26716045   3.942   5.286   3.682  1.4832  1.4873 -0.5118
   50MOL   H26816046   4.119   5.404   3.577  2.2509  1.2271 -2.1521
   50MOL   H26916047   4.042   5.690   3.267  0.7442  0.2501  0.2064
   50MOL   H27016048   3.796   5.661   3.307 -0.7776  0.3882  1.8790
   50MOL   H27116049   3.713   5.530   3.490 -0.2071 -1.1962 -0.2476
   50MOL   H27216050   3.781   5.521   3.782 -1.7205 -0.6049  1.1384
   50MOL   H27316051   3.758   5.375   3.861  1.2558 -1.1664  2.9176
   50MOL   C27416052   3.958   5.469   3.893 -0.0759  0.6120  0.4877
   50MOL   C27516053   3.911   5.540   4.018  0.6868 -0.0582  0.7090
   50MOL   C27616054   3.918   5.678   4.046  0.5987 -0.2324  0.0398
   50MOL   C27716055   3.884   5.731   4.170  0.3388  0.1204  0.1765
   50MOL  Cl27816056   3.897   5.899   4.191  0.0590  0.0153  0.0449
   50MOL   C27916057   3.826   5.653   4.266  0.0383  0.8998 -1.0738
   50MOL   C28016058   3.813   5.515   4.244 -0.6111 -0.1194 -0.0652
   50MOL   C28116059   3.859   5.457   4.122  0.3322 -0.4154  0.2470
   50MOL   C28216060   4.058   5.355   3.913 -0.0373  0.6938 -0.5623
   50MOL   H28316061   4.011   5.539   3.828 -0.0331 -0.9244 -1.1640
   50MOL   H28416062   3.965   5.733   3.965 -0.8997 -0.6810 -1.1528
   50MOL   H28516063   3.792   5.698   4.358 -0.8248 -1.1337 -0.3759
   50MOL   H28616064   3.774   5.441   4.312  1.1977 -0.7316  0.3322
   50MOL   H28716065   3.850   5.350   4.108  0.0013 -0.0809 -2.4056
   50MOL   H28816066   4.004   5.272   3.959 -1.0312  2.0490  0.7899
   50MOL   H28916067   4.092   5.320   3.816  0.5707  0.2114 -0.1785
   50MOL   C29016068   4.180   5.398   3.997  0.0190 -0.1230  1.2848
   50MOL   C29116069   4.215   5.293   4.098  0.0547 -0.8506  0.0331
   50MOL   C29216070   4.209   5.317   4.242 -0.2099 -0.6002  0.2366
   50MOL   C29316071   4.258   5.222   4.337  0.2585 -0.4010  0.7630
   50MOL  Cl29416072   4.258   5.266   4.503  0.0417 -0.0954  0.0554
   50MOL   C29516073   4.296   5.093   4.287 -0.3968  0.3629  0.3540
   50MOL   C29616074   4.284   5.073   4.145 -0.6438 -0.0613  0.0206
   50MOL   C29716075   4.260   5.173   4.055 -0.6206  0.1694 -0.2519
   50MOL   C29816076   4.307   5.437   3.906 -0.3678 -0.8645  1.0606
   50MOL   H29916077   4.153   5.489   4.052 -2.3296 -1.2266  2.0216
   50MOL   H30016078   4.180   5.415   4.276  0.9722 -0.2395  0.2284
   50MOL   H30116079   4.335   5.008   4.340  1.2926  0.7373 -0.2604
   50MOL   H30216080   4.308   4.976   4.106  0.1628 -0.0533  0.4870
   50MOL   H30316081   4.257   5.150   3.950  0.2817  1.4207 -0.5613
   50MOL   H30416082   4.392   5.463   3.970 -0.8865  2.0011  0.6805
   50MOL   H30516083   4.329   5.343   3.857  0.1228  0.2479 -0.9000
   50MOL   C30616084   4.286   5.550   3.802  0.4276  0.4585  0.3621
   50MOL   C30716085   4.251   5.690   3.860  0.4021  0.1382 -0.0331
   50MOL   C30816086   4.311   5.743   3.979 -0.1945 -0.6675  0.2747
   50MOL   C30916087   4.263   5.865   4.038 -0.1665  0.1905  0.0937
   50MOL  Cl31016088   4.317   5.910   4.196 -0.0342  0.1356 -0.0481
   50MOL   C31116089   4.174   5.946   3.961 -0.4414 -0.5151  0.8420
   50MOL   C31216090   4.124   5.897   3.841 -0.3016 -0.9279 -0.0247
   50MOL   C31316091   4.151   5.766   3.796  0.2406  1.0976 -0.2303
   50MOL   C31416092   4.424   5.561   3.734 -0.3863 -0.6787  0.5911
   50MOL   H31516093   4.215   5.530   3.722  0.4025  0.4376  0.3896
   50MOL   H31616094   4.381   5.684   4.036 -0.9917 -0.9863  0.9353
   50MOL   H31716095   4.152   6.045   3.998  1.3290  0.2090  0.0348
   50MOL   H31816096   4.055   5.959   3.786  0.6279  0.2144  0.0867
   50MOL   H31916097   4.095   5.731   3.710 -2.2233 -0.9929  2.1354
   50MOL   H32016098   4.449   5.469   3.681  0.7715 -0.2871  0.4554
   50MOL   H32116099   4.431   5.638   3.657  0.5896 -2.3558 -1.0504
   50MOL   H32216100   4.506   5.585   3.801 -0.9099  0.9217  0.6723
   51MOL     C116101   3.551   0.086   2.841  0.4822 -0.0498  0.4339
   51MOL     C216102   3.532   0.173   2.718 -0.2408 -0.5497  0.2890
   51MOL     C316103   3.398   0.175   2.662 -0.7487 -0.2663 -0.3923
   51MOL     C416104   3.373   0.259   2.560 -0.3426 -0.1990  0.0661
   51MOL    Cl516105   3.217   0.250   2.483  0.0826  0.1026  0.0332
   51MOL     C616106   3.474   0.332   2.502 -0.4551  0.6669 -0.6929
   51MOL     C716107   3.606   0.334   2.549 -0.3401  0.6868 -0.7560
   51MOL     C816108   3.636   0.251   2.662 -0.1412 -0.2674 -0.1917
   51MOL     C916109   3.559   8.369   2.813 -0.5269 -0.4660  0.1148
   51MOL    H1016110   3.472   0.114   2.911 -0.5075  0.4577 -0.8694
   51MOL    H1116111   3.314   0.119   2.701  0.2446 -1.1368  0.5202
   51MOL    H1216112   3.451   0.391   2.414 -0.5117  1.3374 -0.2266
   51MOL    H1316113   3.682   0.394   2.501  0.3119 -1.5061 -2.5606
   51MOL    H1416114   3.738   0.240   2.695  0.0596 -0.8553 -1.0014
   51MOL    H1516115   3.462   8.328   2.786  0.8528 -3.1930 -0.8161
   51MOL    H1616116   3.626   8.353   2.728 -0.6805 -0.7029  0.0385
   51MOL    H1716117   3.640   0.126   2.888 -0.8484  2.4342  0.9504
   51MOL    C1816118   3.618   8.294   2.930 -0.3047  0.4440  0.6962
   51MOL    C1916119   3.520   8.313   3.047 -0.5224 -0.0104 -0.4346
   51MOL    C2016120   3.535   8.424   3.132 -0.0172  1.1878  0.6368
   51MOL    C2116121   3.447   0.006   3.241  0.2696  0.4845 -0.4370
   51MOL   Cl2216122   3.493   0.120   3.363  0.0248 -0.0512  0.1650
   51MOL    C2316123   3.329   8.367   3.250 -0.0247  0.2044  0.1395
   51MOL    C2416124   3.306   8.266   3.154  0.1145  0.5089  0.3748
   51MOL    C2516125   3.403   8.234   3.055 -0.1947  0.3148  0.0418
   51MOL    C2616126   3.651   8.149   2.887  1.0869 -0.6178 -0.2085
   51MOL    H2716127   3.705   8.353   2.959 -0.5740  2.8199 -2.9697
   51MOL    H2816128   3.620   0.056   3.126 -1.2682  2.7058 -0.7711
   51MOL    H2916129   3.257   8.398   3.325 -0.7830  0.1323 -0.5458
   51MOL    H3016130   3.219   8.202   3.162 -0.8875  1.8225  0.2215
   51MOL    H3116131   3.398   8.146   2.992  3.8185 -0.7633  1.0585
   51MOL    H3216132   3.558   8.111   2.847  1.4607 -0.0135 -1.6566
   51MOL    H3316133   3.710   8.150   2.796  0.4357 -0.9147 -0.6309
   51MOL    C3416134   3.711   8.049   2.987 -0.0305  0.4620  0.8352
   51MOL    C3516135   3.698   7.904   2.943 -0.2655 -0.8064 -0.3550
   51MOL    C3616136   3.701   7.805   3.045  0.2413  0.2363  0.4883
   51MOL    C3716137   3.692   7.669   3.018 -0.2696 -0.0936 -0.1655
   51MOL   Cl3816138   3.682   7.556   3.145  0.4676  0.2457  0.2109
   51MOL    C3916139   3.691   7.625   2.886 -0.0287 -0.7879  0.0952
   51MOL    C4016140   3.691   7.723   2.780  0.2791 -0.2300  0.0493
   51MOL    C4116141   3.698   7.860   2.804 -0.0918  0.2702  0.4005
   51MOL    C4216142   3.858   8.076   3.028 -0.3910  0.1751 -0.2920
   51MOL    H4316143   3.647   8.045   3.075  0.5243  0.2063  1.2308
   51MOL    H4416144   3.694   7.840   3.146  0.6744 -3.7281  1.9904
   51MOL    H4516145   3.691   7.519   2.867  3.4307 -0.9788  0.9950
   51MOL    H4616146   3.683   7.691   2.677 -0.3643  0.5923 -0.1559
   51MOL    H4716147   3.695   7.933   2.725 -3.6107  0.3184  0.5352
   51MOL    H4816148   3.863   8.179   3.064 -0.4458 -0.6763  2.2740
   51MOL    H4916149   3.862   8.018   3.120 -0.2086  1.7832  0.7371
   51MOL    C5016150   3.984   8.056   2.941  0.2910  0.5110 -0.5259
   51MOL    C5116151   3.966   8.086   2.789  0.1599  0.4650 -0.1054
   51MOL    C5216152   3.941   8.216   2.738 -0.0045  0.0245  0.6896
   51MOL    C5316153   3.942   8.243   2.601  0.5235 -0.1490  0.6667
   51MOL   Cl5416154   3.909   8.403   2.555  0.1273 -0.2126 -0.0891
   51MOL    C5516155   3.976   8.142   2.507  0.3417 -0.4452  0.2759
   51MOL    C5616156   4.017   8.018   2.555  0.1507  0.1039 -0.3062
   51MOL    C5716157   4.006   7.989   2.696 -0.2710  0.0793  0.8673
   51MOL    C5816158   4.112   8.131   2.978 -1.2602  0.0052  0.1223
   51MOL    H5916159   4.003   7.949   2.947  2.1646  0.7784 -1.1657
   51MOL    H6016160   3.928   8.295   2.811  0.2531  1.1805 -0.4979
   51MOL    H6116161   3.962   8.160   2.401 -2.7625 -1.2801  0.4917
   51MOL    H6216162   4.054   7.935   2.497 -0.7076 -0.1863 -0.4556
   51MOL    H6316163   4.046   7.893   2.726  1.4261  0.4685 -0.1047
   51MOL    H6416164   4.178   8.144   2.893  0.6312  0.4149  1.6079
   51MOL    H6516165   4.084   8.231   3.010 -4.2632 -0.0081 -2.2780
   51MOL    C6616166   4.197   8.058   3.090  0.4362  0.5934  0.0095
   51MOL    C6716167   4.341   8.083   3.062  0.2453  0.4421  1.0233
   51MOL    C6816168   4.395   8.213   3.069 -0.3141 -0.2891 -0.1868
   51MOL    C6916169   4.529   8.238   3.037  0.6487 -0.0537  0.1864
   51MOL   Cl7016170   4.585   8.396   3.036 -0.0203 -0.0710  0.2861
   51MOL    C7116171   4.608   8.126   3.002 -0.8982  0.1215 -0.2572
   51MOL    C7216172   4.555   7.997   3.003  0.5497 -0.4288 -0.7107
   51MOL    C7316173   4.425   7.973   3.034  0.7692 -0.2808 -0.1851
   51MOL    C7416174   4.157   8.086   3.237  0.1797  0.4673 -0.3272
   51MOL    H7516175   4.175   7.953   3.071 -1.3864  1.2927 -1.9962
   51MOL    H7616176   4.334   8.298   3.098 -0.1863 -0.2750  0.0397
   51MOL    H7716177   4.710   8.147   2.974 -0.0848  0.6245  2.9771
   51MOL    H7816178   4.625   7.917   2.981  0.2314 -0.6794 -0.8173
   51MOL    H7916179   4.390   7.871   3.039  1.7959 -0.7418 -2.1558
   51MOL    H8016180   4.142   8.191   3.258  1.5716  0.5573  0.3127
   51MOL    H8116181   4.059   8.040   3.249 -0.5820  1.1409 -3.4342
   51MOL    C8216182   4.254   8.032   3.345 -0.4712  0.2648  0.3181
   51MOL    C8316183   4.372   8.130   3.381 -0.3005 -0.1386  0.0992
   51MOL    C8416184   4.351   8.265   3.410 -0.6626  0.3378 -0.5921
   51MOL    C8516185   4.457   8.351   3.439 -0.1966 -0.3262 -0.1667
   51MOL   Cl8616186   4.422   0.079   3.480 -0.0002 -0.2653  0.0299
   51MOL    C8716187   4.590   8.297   3.422 -0.2217 -0.6223 -0.6061
   51MOL    C8816188   4.615   8.159   3.412  0.4186 -0.2959 -0.4250
   51MOL    C8916189   4.507   8.074   3.376  0.3751 -0.8389  0.6778
   51MOL    C9016190   4.174   8.001   3.471  0.3307 -0.0549 -0.5747
   51MOL    H9116191   4.295   7.938   3.308  2.2907  1.6561 -0.3578
   51MOL    H9216192   4.249   8.301   3.414 -0.8409 -0.2882  0.6709
   51MOL    H9316193   4.675   8.359   3.447 -0.1389 -0.8288 -0.3642
   51MOL    H9416194   4.716   8.120   3.414  1.0573  1.3572  0.1816
   51MOL    H9516195   4.533   7.971   3.358 -0.0406 -0.7825 -0.3350
   51MOL    H9616196   4.134   8.091   3.518  2.5178  0.3299  0.6232
   51MOL    H9716197   4.089   7.939   3.444  0.0942  0.0328 -0.0380
   51MOL    C9816198   4.264   7.922   3.564 -0.5307 -0.6091  0.0314
   51MOL    C9916199   4.229   7.963   3.711 -0.3084  0.3805  0.3264
   51MOL   C10016200   4.149   7.877   3.796 -0.6409  0.0604  0.3758
   51MOL   C10116201   4.153   7.898   3.935  0.6975 -0.0247  0.0208
   51MOL  Cl10216202   4.051   7.790   4.033 -0.4684  0.4229  0.0640
   51MOL   C10316203   4.208   8.017   3.989  0.1870  0.1858  0.0683
   51MOL   C10416204   4.270   8.113   3.901  0.4363 -0.5215  0.3411
   51MOL   C10516205   4.296   8.082   3.765 -0.0948  0.6193  0.0212
   51MOL   C10616206   4.252   7.772   3.533  0.3037 -0.1336  0.5292
   51MOL   H10716207   4.368   7.950   3.548 -0.5945  0.8651  2.0214
   51MOL   H10816208   4.083   7.799   3.760 -0.3421  0.6836 -1.5921
   51MOL   H10916209   4.202   8.052   4.091  0.4033  0.2577  0.0569
   51MOL   H11016210   4.328   8.195   3.940  1.5380 -0.7905 -0.7149
   51MOL   H11116211   4.364   8.136   3.701  1.6460 -2.3336 -0.7266
   51MOL   H11216212   4.147   7.745   3.548 -0.0340 -0.9315 -2.9301
   51MOL   H11316213   4.257   7.744   3.428 -0.3729  1.1025  0.1547
   51MOL   C11416214   4.335   7.669   3.610  0.8666 -0.2728 -0.3584
   51MOL   C11516215   4.273   7.533   3.591  0.2729 -0.5801 -0.5361
   51MOL   C11616216   4.244   7.480   3.462 -0.8086  0.2226  0.0276
   51MOL   C11716217   4.192   7.346   3.444 -0.1740 -0.1620  0.6337
   51MOL  Cl11816218   4.176   7.286   3.288 -0.2257 -0.1110 -0.2408
   51MOL   C11916219   4.154   7.266   3.551 -0.4621  0.4773 -0.9904
   51MOL   C12016220   4.161   7.333   3.675 -0.9133  1.0552  0.0618
   51MOL   C12116221   4.221   7.463   3.696 -0.9751 -0.2312 -0.3523
   51MOL   C12216222   4.484   7.674   3.583  0.4143  0.0656 -0.5556
   51MOL   H12316223   4.333   7.688   3.717 -1.3626 -1.0239 -0.2475
   51MOL   H12416224   4.273   7.535   3.373 -3.2227  2.2721  0.4495
   51MOL   H12516225   4.119   7.164   3.546 -2.5093  1.0487  1.1065
   51MOL   H12616226   4.108   7.278   3.751  1.4075 -0.2260  0.8008
   51MOL   H12716227   4.221   7.505   3.796  0.4726 -0.1852 -0.3497
   51MOL   H12816228   4.502   7.685   3.476 -1.7104  2.0650 -0.7568
   51MOL   H12916229   4.511   7.771   3.625 -2.4513 -0.2778  2.2670
   51MOL   C13016230   4.567   7.552   3.638 -0.6548 -0.5557 -0.1225
   51MOL   C13116231   4.572   7.427   3.545  0.6823  0.5284  0.7261
   51MOL   C13216232   4.599   7.436   3.403  0.7469 -0.0838  0.2970
   51MOL   C13316233   4.577   7.325   3.320 -0.6228  0.0602  0.3035
   51MOL  Cl13416234   4.611   7.339   3.153 -0.2986  0.0429  0.4933
   51MOL   C13516235   4.539   7.200   3.373  0.8152 -0.3811  0.5990
   51MOL   C13616236   4.515   7.187   3.509  0.0564 -0.5486  0.3185
   51MOL   C13716237   4.528   7.302   3.591  0.5063  0.2483  0.9702
   51MOL   C13816238   4.709   7.598   3.667  0.0506 -0.1114 -0.9707
   51MOL   H13916239   4.524   7.522   3.733  0.5920  1.3707  1.0968
   51MOL   H14016240   4.626   7.534   3.364  1.4796 -0.7638 -0.9279
   51MOL   H14116241   4.521   7.117   3.306  1.6664 -0.4097  0.4030
   51MOL   H14216242   4.489   7.096   3.561 -1.3670 -0.5943 -0.4564
   51MOL   H14316243   4.520   7.291   3.698 -0.5367  0.3705  0.9193
   51MOL   H14416244   4.757   7.599   3.569  0.6580 -0.6986 -0.6838
   51MOL   H14516245   4.702   7.700   3.706 -1.5744 -0.6696  0.2645
   51MOL   C14616246   4.788   7.509   3.765  0.5787  0.5804 -0.8217
   51MOL   C14716247   4.821   7.370   3.718 -0.5329 -0.7753 -0.6436
   51MOL   C14816248   4.780   7.264   3.800  0.2528  0.4434  0.9956
   51MOL   C14916249   4.808   7.129   3.758  0.0749  0.8633  0.0924
   51MOL  Cl15016250   4.744   6.997   3.850  0.2609  0.0704  0.2870
   51MOL   C15116251   4.887   7.112   3.640  0.3872  0.9186  0.2925
   51MOL   C15216252   4.925   7.218   3.558  0.3803  0.0269 -0.2132
   51MOL   C15316253   4.892   7.349   3.597  0.1831  0.2083 -0.0078
   51MOL   C15416254   4.916   7.596   3.799 -0.0966  0.4743  0.9437
   51MOL   H15516255   4.728   7.500   3.855 -1.5471 -1.4032 -2.4031
   51MOL   H15616256   4.722   7.284   3.889  0.0610 -1.2620  1.2731
   51MOL   H15716257   4.914   7.014   3.604 -0.7528  1.2300 -1.4693
   51MOL   H15816258   4.973   7.215   3.462  0.4757  0.5294 -0.1853
   51MOL   H15916259   4.925   7.431   3.535 -0.1805 -0.7378 -1.5033
   51MOL   H16016260   4.964   7.619   3.704  0.6392 -0.3444  1.1169
   51MOL   H16116261   4.890   7.693   3.843 -0.7663 -0.5580  2.8738
   51MOL   C16216262   5.018   7.521   3.898 -0.5078  0.2347 -0.0562
   51MOL   C16316263   5.154   7.589   3.889  0.0199  0.0739 -0.0754
   51MOL   C16416264   5.172   7.709   3.957  0.1312  0.7923  0.0581
   51MOL   C16516265   5.290   7.782   3.952  0.2025 -0.7077 -0.1536
   51MOL  Cl16616266   5.308   7.933   4.036 -0.2350  0.1010  0.2638
   51MOL   C16716267   5.399   7.731   3.889 -0.5383 -0.2802  0.3965
   51MOL   C16816268   5.393   7.607   3.820  0.0986  0.8897  0.0709
   51MOL   C16916269   5.269   7.534   3.823 -0.0410  0.3751 -0.1185
   51MOL   C17016270   4.949   7.507   4.041 -0.3025 -0.6102  0.2044
   51MOL   H17116271   5.042   7.421   3.863  1.8152  1.5942 -2.5969
   51MOL   H17216272   5.095   7.737   4.027  0.5383 -2.2242  1.7913
   51MOL   H17316273   5.487   7.794   3.901 -0.2636 -0.5945  0.0080
   51MOL   H17416274   5.479   7.565   3.771 -1.1356  0.8760 -2.1312
   51MOL   H17516275   5.276   7.443   3.766  2.6237  0.7439 -0.4544
   51MOL   H17616276   4.920   7.607   4.072 -1.4168 -1.6319  2.5787
   51MOL   H17716277   4.856   7.452   4.023 -1.0377  0.3103  1.1521
   51MOL   C17816278   5.039   7.442   4.148  0.2609 -0.1197  0.0305
   51MOL   C17916279   5.129   7.531   4.228  0.2494 -0.4022 -0.0090
   51MOL   C18016280   5.264   7.492   4.229 -0.0788 -0.1125 -0.3331
   51MOL   C18116281   5.356   7.571   4.298 -0.5667  0.6226 -0.6517
   51MOL  Cl18216282   5.521   7.516   4.312 -0.2618  0.1986  0.5058
   51MOL   C18316283   5.314   7.698   4.354 -0.3515  0.0680  0.5348
   51MOL   C18416284   5.181   7.743   4.336  0.1377 -0.0216 -0.1844
   51MOL   C18516285   5.083   7.653   4.280  0.4320  0.3492  0.0162
   51MOL   C18616286   4.971   7.339   4.246 -0.4023  0.2796 -0.6863
   51MOL   H18716287   5.106   7.373   4.098  0.8998  0.1261  0.5250
   51MOL   H18816288   5.305   7.400   4.188  1.9661  0.4106  0.4317
   51MOL   H18916289   5.377   7.737   4.433 -0.9407  2.2249 -0.0279
   51MOL   H19016290   5.145   7.834   4.382  0.0585 -0.1395 -0.0129
   51MOL   H19116291   4.979   7.682   4.277 -0.0479 -1.4178 -1.1138
   51MOL   H19216292   5.041   7.309   4.323  0.9328 -0.4046 -2.1287
   51MOL   H19316293   4.902   7.404   4.300 -2.1882 -0.3418 -2.1437
   51MOL   C19416294   4.901   7.213   4.180 -1.2016 -0.2502  0.0283
   51MOL   C19516295   5.016   7.113   4.149  0.4487  0.4900 -0.2315
   51MOL   C19616296   5.063   7.103   4.017 -0.7357  0.0690  0.1569
   51MOL   C19716297   5.157   7.007   3.983  0.2237  0.4151 -0.4815
   51MOL  Cl19816298   5.216   6.976   3.822 -0.3307  0.1586 -0.3419
   51MOL   C19916299   5.207   6.919   4.076 -0.0451 -0.4924  0.5843
   51MOL   C20016300   5.157   6.924   4.206 -0.0563  0.4036  0.4607
   51MOL   C20116301   5.064   7.016   4.244 -0.8257  0.1805 -0.3093
   51MOL   C20216302   4.804   7.146   4.281 -0.5132  0.0380 -0.6401
   51MOL   H20316303   4.853   7.247   4.089  1.3026  1.9768 -0.5131
   51MOL   H20416304   5.032   7.176   3.943 -1.7834 -0.1786  0.3405
   51MOL   H20516305   5.281   6.847   4.045  0.1913  0.7114 -1.7420
   51MOL   H20616306   5.187   6.855   4.283  2.4038 -0.2119 -0.9938
   51MOL   H20716307   5.025   7.007   4.345  0.8134  0.6650  0.4012
   51MOL   H20816308   4.769   7.046   4.256 -1.3341  0.2425 -0.3173
   51MOL   H20916309   4.855   7.125   4.375  2.1630 -1.0470 -2.2671
   51MOL   C21016310   4.677   7.229   4.311  0.1626 -0.5805 -0.1325
   51MOL   C21116311   4.598   7.267   4.189  0.3997 -0.6699 -0.1747
   51MOL   C21216312   4.549   7.169   4.101  0.0543 -0.4190  0.2646
   51MOL   C21316313   4.458   7.201   3.993 -0.5470  0.6013  0.2193
   51MOL  Cl21416314   4.384   7.080   3.888  0.0941  0.1603  0.1844
   51MOL   C21516315   4.431   7.336   3.975 -0.0371  0.9718  0.2646
   51MOL   C21616316   4.488   7.437   4.056  0.1075  0.1377 -0.1213
   51MOL   C21716317   4.563   7.405   4.169 -0.5986  0.7959 -0.1611
   51MOL   C21816318   4.589   7.174   4.420 -0.3733  0.1855 -0.1276
   51MOL   H21916319   4.711   7.321   4.359 -1.2174  0.8112 -1.7334
   51MOL   H22016320   4.561   7.065   4.128  2.5364 -0.2908 -0.2428
   51MOL   H22116321   4.363   7.359   3.895 -0.8288 -1.0692  0.3133
   51MOL   H22216322   4.463   7.538   4.028 -1.1180 -0.0704  0.1728
   51MOL   H22316323   4.590   7.482   4.241  0.2589  2.1448 -1.8996
   51MOL   H22416324   4.560   7.074   4.388 -1.8400  0.8104 -0.8041
   51MOL   H22516325   4.659   7.160   4.502 -0.1732 -0.3388 -0.3838
   51MOL   C22616326   4.468   7.261   4.474  0.1201  0.0808  0.2541
   51MOL   C22716327   4.335   7.207   4.425  0.8789 -0.1046  0.1372
   51MOL   C22816328   4.247   7.284   4.352  0.7124 -0.7674 -0.8617
   51MOL   C22916329   4.115   7.248   4.317 -0.0573  0.5146  0.5848
   51MOL  Cl23016330   4.017   7.360   4.236  0.1656 -0.1370 -0.2555
   51MOL   C23116331   4.069   7.119   4.350  0.2893  0.3182  1.1367
   51MOL   C23216332   4.150   7.035   4.423  0.0676 -0.1472 -0.0644
   51MOL   C23316333   4.283   7.079   4.463 -0.4836  0.0779 -0.3110
   51MOL   C23416334   4.461   7.289   4.629  0.3743  0.2602 -0.3305
   51MOL   H23516335   4.475   7.361   4.432 -1.7872  0.7135  1.3812
   51MOL   H23616336   4.273   7.388   4.335 -1.2721  0.0798  0.9483
   51MOL   H23716337   3.968   7.086   4.328  0.5793 -0.6296  1.2053
   51MOL   H23816338   4.112   6.940   4.458  0.0034 -0.2457 -0.4027
   51MOL   H23916339   4.333   7.012   4.532 -2.0754  0.8725  1.6529
   51MOL   H24016340   4.385   7.365   4.645 -0.3434 -0.2793 -1.1435
   51MOL   H24116341   4.434   7.198   4.683  1.1772 -0.4173 -1.0624
   51MOL   C24216342   4.585   7.343   4.705 -0.2313  0.0152 -1.0678
   51MOL   C24316343   4.662   7.450   4.624  0.1579  0.3125  0.3718
   51MOL   C24416344   4.803   7.445   4.622  0.1601 -0.1840  0.2254
   51MOL   C24516345   4.877   7.554   4.574 -0.0463 -0.2969  0.1402
   51MOL  Cl24616346   5.052   7.542   4.594  0.0197 -0.2585  0.2512
   51MOL   C24716347   4.809   7.672   4.531 -0.6836  0.2963 -0.6020
   51MOL   C24816348   4.668   7.685   4.529 -0.2515 -0.1799  0.2272
   51MOL   C24916349   4.597   7.565   4.566  0.8387  0.0624 -0.2956
   51MOL   C25016350   4.548   7.405   4.837  0.0844 -0.2567  0.3284
   51MOL   H25116351   4.652   7.257   4.716 -0.8279 -0.1075  2.0428
   51MOL   H25216352   4.849   7.356   4.662 -0.8205 -1.4370 -1.3720
   51MOL   H25316353   4.868   7.751   4.488  1.4340 -0.4867  0.7784
   51MOL   H25416354   4.618   7.773   4.493 -0.6294  0.0185  1.2306
   51MOL   H25516355   4.489   7.571   4.564  0.7730 -0.2357  1.4237
   51MOL   H25616356   4.504   7.500   4.805 -0.8468 -0.4234  1.0636
   51MOL   H25716357   4.463   7.358   4.888 -0.2189  0.1933  0.2471
   51MOL   C25816358   4.661   7.454   4.934 -0.2704  0.0207  0.3189
   51MOL   C25916359   4.629   7.572   5.019  0.4553 -0.2701 -0.2958
   51MOL   C26016360   4.523   7.562   5.110  0.5234 -0.3648 -0.0353
   51MOL   C26116361   4.496   7.668   5.201  0.7772 -0.2774 -0.1083
   51MOL  Cl26216362   4.378   7.655   5.328 -0.1696 -0.2034  0.1195
   51MOL   C26316363   4.574   7.788   5.194 -0.2363 -0.0751 -0.2541
   51MOL   C26416364   4.670   7.808   5.093 -0.3904 -0.2312 -0.1428
   51MOL   C26516365   4.701   7.695   5.015  0.2005 -0.5408 -0.1175
   51MOL   C26616366   4.735   7.332   5.005  0.7315  0.2300 -0.6037
   51MOL   H26716367   4.743   7.488   4.871  0.4263  2.1288  2.2720
   51MOL   H26816368   4.461   7.475   5.123  0.2370 -0.6093 -2.7066
   51MOL   H26916369   4.540   7.863   5.264 -1.0078 -0.7498  0.1056
   51MOL   H27016370   4.738   7.889   5.070  1.2370 -1.1506  1.3730
   51MOL   H27116371   4.768   7.700   4.931  2.0084 -4.6161  0.9706
   51MOL   H27216372   4.652   7.281   5.054  1.4780 -0.8976 -0.4932
   51MOL   H27316373   4.770   7.269   4.924  1.7093 -3.0315  2.2488
   51MOL   C27416374   4.843   7.371   5.107  0.0313  0.6206  0.2417
   51MOL   C27516375   4.884   7.251   5.198 -0.2698 -0.2275 -0.2797
   51MOL   C27616376   4.850   7.251   5.333  0.1818 -0.9140  0.1672
   51MOL   C27716377   4.871   7.139   5.414  0.0811  0.0695 -0.6678
   51MOL  Cl27816378   4.799   7.139   5.572  0.0739 -0.2722 -0.1245
   51MOL   C27916379   4.936   7.024   5.363  0.4118 -0.6935  0.3300
   51MOL   C28016380   4.968   7.027   5.225  0.0225  0.0990  0.3625
   51MOL   C28116381   4.946   7.138   5.136  1.1626  0.4587 -0.6237
   51MOL   C28216382   4.969   7.425   5.032 -0.5322 -0.5655  0.4529
   51MOL   H28316383   4.801   7.439   5.181  0.3307  2.0879 -0.9105
   51MOL   H28416384   4.806   7.339   5.377 -2.1436 -2.0316  0.1584
   51MOL   H28516385   4.950   6.933   5.420  0.0480  0.4801  2.2988
   51MOL   H28616386   5.008   6.939   5.178  0.5733  1.1352 -1.1389
   51MOL   H28716387   4.969   7.133   5.031  0.0927 -1.1687 -0.7947
   51MOL   H28816388   5.011   7.345   4.971 -1.5731 -0.4825 -0.3727
   51MOL   H28916389   4.941   7.505   4.964  1.7107  2.8901  3.3915
   51MOL   C29016390   5.084   7.499   5.112 -0.2740 -0.6044 -0.3172
   51MOL   C29116391   5.207   7.508   5.027 -0.4861  0.2723  0.3138
   51MOL   C29216392   5.297   7.399   5.026  0.0302  0.1824  0.0026
   51MOL   C29316393   5.419   7.413   4.951 -0.2611 -0.1615 -0.1780
   51MOL  Cl29416394   5.552   7.290   4.946  0.1576  0.1089  0.5124
   51MOL   C29516395   5.437   7.528   4.870 -0.8634 -0.7593 -0.0302
   51MOL   C29616396   5.339   7.635   4.872 -0.6461 -0.0644 -0.2240
   51MOL   C29716397   5.224   7.623   4.955  0.0033 -0.4906 -0.6426
   51MOL   C29816398   5.037   7.626   5.185 -0.5577 -0.1743 -0.1751
   51MOL   H29916399   5.119   7.428   5.186 -0.3296 -0.9698 -0.6369
   51MOL   H30016400   5.282   7.323   5.101  1.8724 -0.6700 -0.4554
   51MOL   H30116401   5.523   7.542   4.806 -1.0556 -2.7901 -0.7476
   51MOL   H30216402   5.362   7.725   4.817 -0.2632 -0.1211 -0.1566
   51MOL   H30316403   5.149   7.700   4.968  1.1935  0.7802 -1.1660
   51MOL   H30416404   4.982   7.687   5.114  1.5750 -0.1081 -1.8251
   51MOL   H30516405   4.966   7.595   5.262 -0.9566 -0.3060 -0.5974
   51MOL   C30616406   5.150   7.703   5.256 -0.2978 -0.2772  0.3683
   51MOL   C30716407   5.095   7.817   5.334  1.0905 -0.0571 -0.4652
   51MOL   C30816408   5.187   7.904   5.399 -0.1709  0.6272  0.5893
   51MOL   C30916409   5.137   8.016   5.463 -0.1532 -0.3124  0.4817
   51MOL  Cl31016410   5.251   8.112   5.546  0.0664  0.0397 -0.1288
   51MOL   C31116411   4.999   8.052   5.460 -0.1126 -0.0945 -0.4096
   51MOL   C31216412   4.911   7.969   5.399  0.5222 -0.4825  0.1045
   51MOL   C31316413   4.957   7.848   5.337 -0.0139 -0.2336 -0.2021
   51MOL   C31416414   5.225   7.610   5.356 -0.1767  0.0682  0.2777
   51MOL   H31516415   5.216   7.745   5.180  0.5763 -1.3082  0.5366
   51MOL   H31616416   5.293   7.895   5.384 -0.5831 -0.1442 -2.2157
   51MOL   H31716417   4.964   8.144   5.503 -1.8519 -0.0763 -1.8419
   51MOL   H31816418   4.812   8.012   5.392 -0.0503 -1.6554  0.9627
   51MOL   H31916419   4.887   7.779   5.293  1.1439 -1.0944 -0.7427
   51MOL   H32016420   5.161   7.566   5.432 -1.2291  0.3722 -0.4158
   51MOL   H32116421   5.265   7.523   5.303  0.7550  0.6535  0.0185
   51MOL   H32216422   5.317   7.653   5.396  0.3783 -0.6607 -0.1914
   52MOL     C116423   2.178   7.396   2.274  0.6011 -0.1255  0.7184
   52MOL     C216424   2.111   7.520   2.342  0.2400  0.6320  0.4493
   52MOL     C316425   2.187   7.627   2.374 -0.7457  0.2526 -0.2806
   52MOL     C416426   2.136   7.741   2.434 -0.4857  0.1287  0.3860
   52MOL    Cl516427   2.247   7.855   2.489  0.2466  0.4888 -0.0702
   52MOL     C616428   1.997   7.746   2.469 -0.1734 -0.4092  1.2988
   52MOL     C716429   1.916   7.634   2.434 -0.1623 -0.5746  0.0327
   52MOL     C816430   1.969   7.518   2.370 -0.9686  1.0293  0.0482
   52MOL     C916431   2.304   7.340   2.344  0.1180  0.1972 -0.1046
   52MOL    H1016432   2.190   7.417   2.168  0.4182  0.3849  0.7938
   52MOL    H1116433   2.294   7.619   2.363 -0.9404 -2.8984 -0.2432
   52MOL    H1216434   1.953   7.822   2.532 -1.1998  0.5900 -0.6007
   52MOL    H1316435   1.809   7.633   2.445 -0.3351  1.1255 -1.2813
   52MOL    H1416436   1.916   7.433   2.332  0.1897  1.7944 -3.3993
   52MOL    H1516437   2.383   7.414   2.336  1.1425 -0.9691 -1.0979
   52MOL    H1616438   2.289   7.323   2.450  0.8912  0.0428 -0.0191
   52MOL    H1716439   2.103   7.318   2.274  0.6616 -0.1838  0.5246
   52MOL    C1816440   2.346   7.202   2.296  0.2535  0.0773  0.0638
   52MOL    C1916441   2.377   7.217   2.149 -0.0681  0.0767 -0.2428
   52MOL    C2016442   2.456   7.320   2.098  0.5827 -0.0755 -0.1718
   52MOL    C2116443   2.490   7.330   1.964  0.6832 -0.3790 -0.4114
   52MOL   Cl2216444   2.614   7.439   1.916  0.0094  0.2971  0.0636
   52MOL    C2316445   2.429   7.237   1.874 -0.1167 -0.1948  0.2654
   52MOL    C2416446   2.334   7.142   1.920  1.1976 -0.0115  0.5767
   52MOL    C2516447   2.318   7.124   2.061 -0.0677 -0.5759 -0.4729
   52MOL    C2616448   2.476   7.162   2.375  0.6788 -0.2722 -0.5609
   52MOL    H2716449   2.271   7.125   2.312  0.9697 -0.4041  1.1781
   52MOL    H2816450   2.498   7.398   2.161 -0.2526  0.0214  0.2684
   52MOL    H2916451   2.448   7.227   1.769 -1.8995 -0.7433 -0.0301
   52MOL    H3016452   2.296   7.074   1.845 -0.6305  0.1184  1.3474
   52MOL    H3116453   2.256   7.044   2.100 -0.9492 -0.9253 -2.5365
   52MOL    H3216454   2.532   7.084   2.324  0.2197 -1.4328  0.6694
   52MOL    H3316455   2.548   7.243   2.373  0.9317 -0.4672  0.2233
   52MOL    C3416456   2.455   7.114   2.517 -0.5117  0.2154  0.2082
   52MOL    C3516457   2.408   6.967   2.512  0.2493 -0.3239 -0.3101
   52MOL    C3616458   2.271   6.945   2.524 -0.2032 -0.1393  0.1750
   52MOL    C3716459   2.224   6.813   2.501  0.2124  0.7240 -0.0862
   52MOL   Cl3816460   2.056   6.777   2.525 -0.1696 -0.1483 -0.0986
   52MOL    C3916461   2.315   6.711   2.459 -0.2390 -0.5676 -0.1907
   52MOL    C4016462   2.452   6.738   2.455 -0.1341 -0.5373  0.3440
   52MOL    C4116463   2.498   6.863   2.487  0.0470  0.9465  1.0116
   52MOL    C4216464   2.585   7.128   2.606 -0.1359 -0.4471  0.2650
   52MOL    H4316465   2.378   7.175   2.563  0.1676  0.2756  1.2676
   52MOL    H4416466   2.202   7.026   2.539 -1.1068 -1.0680  1.1346
   52MOL    H4516467   2.263   6.620   2.432 -0.6630 -0.5017  0.3931
   52MOL    H4616468   2.511   6.651   2.427 -0.7807 -0.9435  0.2180
   52MOL    H4716469   2.604   6.885   2.489  0.5574 -1.4795  1.1835
   52MOL    H4816470   2.583   7.051   2.683  0.2802  0.6818  1.4235
   52MOL    H4916471   2.668   7.094   2.544  1.3108 -4.5185  4.1901
   52MOL    C5016472   2.611   7.271   2.665  0.0374  0.6662 -0.4214
   52MOL    C5116473   2.556   7.270   2.807  0.6325  0.1350  0.1469
   52MOL    C5216474   2.451   7.360   2.840 -0.9567  0.6952 -0.4804
   52MOL    C5316475   2.406   7.369   2.974 -0.4690  0.8901  0.4331
   52MOL   Cl5416476   2.281   7.476   3.020  0.5775  0.4844  0.2641
   52MOL    C5516477   2.455   7.286   3.081 -0.1840 -0.3235  0.4801
   52MOL    C5616478   2.559   7.201   3.042 -0.2599  0.3798 -0.4292
   52MOL    C5716479   2.613   7.197   2.915 -0.2696  0.4401  0.2379
   52MOL    C5816480   2.758   7.302   2.659 -0.2435 -0.5313 -0.1640
   52MOL    H5916481   2.561   7.348   2.607 -1.0368 -1.0729 -1.8737
   52MOL    H6016482   2.397   7.410   2.761 -0.1869  0.2496 -1.3044
   52MOL    H6116483   2.419   7.305   3.181  0.8740  0.3493  0.7477
   52MOL    H6216484   2.603   7.144   3.123 -2.4611  0.7040  1.0329
   52MOL    H6316485   2.699   7.138   2.890 -2.2174 -1.2172 -2.9874
   52MOL    H6416486   2.774   7.376   2.738 -0.1350 -0.4861 -0.2272
   52MOL    H6516487   2.813   7.212   2.688  0.3909 -0.0594  0.1104
   52MOL    C6616488   2.805   7.358   2.519 -0.0187  0.2775  0.1411
   52MOL    C6716489   2.756   7.500   2.489 -0.1016 -0.5170  0.2214
   52MOL    C6816490   2.695   7.527   2.360 -0.0511  0.4200  0.9369
   52MOL    C6916491   2.653   7.656   2.330 -0.8080  0.4576  0.0380
   52MOL   Cl7016492   2.566   7.688   2.186 -0.3515  0.0469 -0.1084
   52MOL    C7116493   2.678   7.762   2.422 -0.3920 -0.0092  1.3999
   52MOL    C7216494   2.728   7.733   2.553 -0.3878  0.1440  0.5283
   52MOL    C7316495   2.761   7.603   2.586  0.4889  0.9246  0.3506
   52MOL    C7416496   2.948   7.347   2.478 -0.3435  0.1662 -0.1865
   52MOL    H7516497   2.755   7.297   2.444 -0.6298 -0.2721  0.9764
   52MOL    H7616498   2.696   7.444   2.290 -1.0550 -0.8539  2.3880
   52MOL    H7716499   2.660   7.863   2.390 -0.2102  0.1092  1.6679
   52MOL    H7816500   2.739   7.805   2.633  0.6492  2.0113 -1.2603
   52MOL    H7916501   2.790   7.576   2.686 -1.1273 -0.1492  0.5596
   52MOL    H8016502   2.969   7.416   2.396 -0.9470 -0.8965 -1.2468
   52MOL    H8116503   3.010   7.380   2.561 -0.8178  0.0159  0.2303
   52MOL    C8216504   3.003   7.211   2.433  0.1177  0.7942 -0.9715
   52MOL    C8316505   2.917   7.122   2.347  0.3199 -0.4568 -0.2764
   52MOL    C8416506   2.878   6.987   2.383 -0.3299  0.1497 -0.3226
   52MOL    C8516507   2.825   6.896   2.293 -0.1411  0.8296 -0.9945
   52MOL   Cl8616508   2.786   6.733   2.338  0.0894  0.3541  0.2261
   52MOL    C8716509   2.784   6.941   2.169  0.3760  0.0731  0.1447
   52MOL    C8816510   2.819   7.070   2.128  0.5632 -0.5526 -0.1713
   52MOL    C8916511   2.888   7.157   2.213  0.7458  0.2137 -0.0080
   52MOL    C9016512   3.143   7.232   2.363  0.2710  0.1782  0.3924
   52MOL    H9116513   3.017   7.157   2.527  3.0196 -0.5095 -2.1015
   52MOL    H9216514   2.916   6.943   2.474 -0.4076 -0.9220 -0.8082
   52MOL    H9316515   2.730   6.876   2.102 -1.6680  2.0790 -0.1892
   52MOL    H9416516   2.804   7.095   2.024  2.1091  0.0003 -0.2691
   52MOL    H9516517   2.909   7.254   2.171  1.8049  0.1580  0.3975
   52MOL    H9616518   3.159   7.177   2.270 -2.0978  0.3163 -0.1440
   52MOL    H9716519   3.142   7.329   2.312 -0.8257 -1.0451 -2.0218
   52MOL    C9816520   3.280   7.218   2.442 -0.1205 -0.4938  0.3301
   52MOL    C9916521   3.316   7.337   2.541  0.0787  1.0134  0.1067
   52MOL   C10016522   3.321   7.329   2.681 -0.0988  0.5087 -0.0956
   52MOL   C10116523   3.347   7.440   2.766 -0.7888 -0.5023 -0.0290
   52MOL  Cl10216524   3.346   7.427   2.941 -0.0952  0.1358  0.1161
   52MOL   C10316525   3.368   7.571   2.707  0.0907  0.9325 -0.1739
   52MOL   C10416526   3.359   7.580   2.567 -0.2735 -0.4145 -0.7543
   52MOL   C10516527   3.340   7.467   2.487 -0.5350 -0.1354 -0.2297
   52MOL   C10616528   3.314   7.087   2.499  0.3642  0.7420 -0.1692
   52MOL   H10716529   3.346   7.212   2.355 -1.3202 -1.5086 -0.5343
   52MOL   H10816530   3.303   7.231   2.723  1.1346  0.5806  0.6200
   52MOL   H10916531   3.393   7.652   2.774  1.6512 -0.0978  0.5050
   52MOL   H11016532   3.376   7.674   2.518 -1.2610 -0.4332 -1.1455
   52MOL   H11116533   3.333   7.476   2.380 -0.3170  3.8760  0.0092
   52MOL   H11216534   3.415   7.092   2.540  0.7792 -3.0438 -0.5767
   52MOL   H11316535   3.258   7.058   2.588 -0.4074  1.2428 -0.4851
   52MOL   C11416536   3.307   6.963   2.410 -0.3832  0.1175 -0.6501
   52MOL   C11516537   3.386   6.977   2.273  0.1747  0.5346  0.0009
   52MOL   C11616538   3.523   7.018   2.266 -0.6209  0.6674 -0.1093
   52MOL   C11716539   3.587   7.018   2.142 -0.9007  0.0869  0.8469
   52MOL  Cl11816540   3.741   7.098   2.115 -0.0795  0.3563 -0.0025
   52MOL   C11916541   3.526   6.957   2.030  0.3250  0.4794  0.0502
   52MOL   C12016542   3.394   6.921   2.036 -0.1619 -0.6325  0.2535
   52MOL   C12116543   3.327   6.930   2.157  0.3380  0.2544 -0.3843
   52MOL   C12216544   3.371   6.842   2.487 -0.2218  0.1930  0.3746
   52MOL   H12316545   3.201   6.956   2.385 -0.2924 -0.5520 -0.8733
   52MOL   H12416546   3.577   7.059   2.350  2.3079 -2.1845 -0.4866
   52MOL   H12516547   3.564   6.960   1.929  2.0420  1.2044  0.7045
   52MOL   H12616548   3.333   6.889   1.953 -0.7957  1.0712  0.0537
   52MOL   H12716549   3.226   6.898   2.176  0.1705  0.1265 -1.4822
   52MOL   H12816550   3.476   6.825   2.463  0.0553  0.7236  1.2056
   52MOL   H12916551   3.377   6.851   2.595  0.9504 -0.9537  0.4177
   52MOL   C13016552   3.291   6.705   2.469  0.3382  0.4439 -1.0872
   52MOL   C13116553   3.284   6.646   2.327 -0.1407  0.5161  0.2392
   52MOL   C13216554   3.161   6.635   2.259  0.5212  0.8347  0.3106
   52MOL   C13316555   3.155   6.589   2.126 -0.2716  0.4465  0.5897
   52MOL  Cl13416556   2.998   6.594   2.052  0.0775  0.1533 -0.1174
   52MOL   C13516557   3.267   6.554   2.056  0.0593 -0.0174  0.7924
   52MOL   C13616558   3.390   6.568   2.121 -0.8419 -0.0332 -0.4354
   52MOL   C13716559   3.405   6.614   2.257 -0.3413 -0.9001 -0.2031
   52MOL   C13816560   3.330   6.601   2.572  0.1449 -0.1697 -0.1025
   52MOL   H13916561   3.185   6.720   2.488 -0.0584 -0.5917 -2.4144
   52MOL   H14016562   3.067   6.659   2.307 -0.9621  0.2243 -2.2005
   52MOL   H14116563   3.270   6.508   1.958  1.8613  2.7065 -0.4969
   52MOL   H14216564   3.486   6.539   2.080  1.2882  0.8887  3.5783
   52MOL   H14316565   3.504   6.620   2.301 -1.1799  2.3372  1.4197
   52MOL   H14416566   3.292   6.506   2.533  0.8207 -0.5148  0.0895
   52MOL   H14516567   3.436   6.581   2.578  0.0638 -0.4298  0.5073
   52MOL   C14616568   3.263   6.628   2.710 -0.0770 -0.8987 -0.0690
   52MOL   C14716569   3.111   6.613   2.696 -0.5609  0.4460 -0.6444
   52MOL   C14816570   3.031   6.721   2.723  0.2201  0.2492  0.1027
   52MOL   C14916571   2.893   6.707   2.718  1.3227  0.0126 -0.2886
   52MOL  Cl15016572   2.792   6.848   2.741 -0.0297 -0.4398 -0.3519
   52MOL   C15116573   2.832   6.582   2.679 -0.2105 -0.1039  0.3399
   52MOL   C15216574   2.914   6.479   2.657  0.2412  0.1519 -0.7782
   52MOL   C15316575   3.053   6.486   2.670  0.2139  0.8493  0.1983
   52MOL   C15416576   3.320   6.548   2.828  0.3844 -0.1123  0.2832
   52MOL   H15516577   3.276   6.734   2.727  0.1127 -1.0285  0.6075
   52MOL   H15616578   3.079   6.811   2.759  1.3843 -0.3481  0.0809
   52MOL   H15716579   2.727   6.589   2.652 -0.1311  1.1408  0.3265
   52MOL   H15816580   2.872   6.383   2.628 -0.7461 -0.0628  1.2163
   52MOL   H15916581   3.108   6.394   2.657  0.5220  1.2236 -1.3037
   52MOL   H16016582   3.235   6.526   2.893 -0.5635 -1.7681 -1.4538
   52MOL   H16116583   3.348   6.452   2.784  1.3332 -0.7457  2.2270
   52MOL   C16216584   3.425   6.616   2.917 -1.3055  0.0315  0.3426
   52MOL   C16316585   3.383   6.754   2.968  0.5852  0.0525  0.1867
   52MOL   C16416586   3.309   6.773   3.085 -0.1008 -0.9387 -0.3653
   52MOL   C16516587   3.285   6.897   3.132  0.7336  0.3075 -0.0197
   52MOL  Cl16616588   3.173   6.915   3.262 -0.2074 -0.1849  0.0733
   52MOL   C16716589   3.325   7.012   3.064 -0.4983  0.6322  0.3689
   52MOL   C16816590   3.398   6.990   2.947 -0.6510  0.0273 -0.0916
   52MOL   C16916591   3.428   6.864   2.897  0.9113 -0.4063  0.5086
   52MOL   C17016592   3.489   6.539   3.029  0.1901 -0.5448 -0.1640
   52MOL   H17116593   3.511   6.624   2.850 -0.8693 -0.8285  0.7759
   52MOL   H17216594   3.271   6.688   3.140  1.2960  0.0474  2.2360
   52MOL   H17316595   3.293   7.108   3.103 -0.2414 -0.3003  2.9469
   52MOL   H17416596   3.440   7.076   2.895  0.5908 -0.6640 -0.2603
   52MOL   H17516597   3.488   6.869   2.807  1.6003 -0.1094  0.9771
   52MOL   H17616598   3.572   6.594   3.072  0.6972 -1.3580 -0.1014
   52MOL   H17716599   3.419   6.519   3.110 -0.4390  0.9699 -0.3077
   52MOL   C17816600   3.552   6.402   2.991  0.9395 -0.3747  0.2033
   52MOL   C17916601   3.670   6.424   2.899  0.5247 -0.1209 -0.0675
   52MOL   C18016602   3.796   6.468   2.941 -0.2595 -0.5071  0.1311
   52MOL   C18116603   3.907   6.490   2.856 -0.7107 -0.1598  0.4689
   52MOL  Cl18216604   4.051   6.561   2.923  0.3650  0.3090 -0.3757
   52MOL   C18316605   3.892   6.466   2.722 -0.0635 -0.0698  0.6208
   52MOL   C18416606   3.772   6.417   2.670 -0.3980 -0.0734  0.2595
   52MOL   C18516607   3.660   6.396   2.757  0.0462  0.3243 -0.6208
   52MOL   C18616608   3.591   6.322   3.113 -0.5862 -0.5701  0.2202
   52MOL   H18716609   3.469   6.363   2.932 -0.8330  1.7482  1.2057
   52MOL   H18816610   3.821   6.476   3.045 -0.1099  1.7364 -0.0645
   52MOL   H18916611   3.973   6.494   2.656  0.5881 -1.3179  0.8729
   52MOL   H19016612   3.759   6.418   2.563  2.2019 -0.7303 -0.0949
   52MOL   H19116613   3.567   6.356   2.719  1.4875 -3.7671 -0.0518
   52MOL   H19216614   3.621   6.226   3.071  0.8076  0.2688 -0.7280
   52MOL   H19316615   3.664   6.373   3.176  0.1369 -0.0233 -1.0150
   52MOL   C19416616   3.475   6.277   3.206 -0.0478 -0.0092 -0.2024
   52MOL   C19516617   3.345   6.244   3.138 -0.3333 -0.0087 -0.0921
   52MOL   C19616618   3.219   6.302   3.175 -0.0672  0.6328 -0.2730
   52MOL   C19716619   3.105   6.269   3.097  0.2278 -0.6295 -0.4156
   52MOL  Cl19816620   2.951   6.329   3.128 -0.3475 -0.5680  0.1803
   52MOL   C19916621   3.115   6.181   2.986  1.0619 -0.4901 -0.2686
   52MOL   C20016622   3.238   6.115   2.959 -0.6007 -0.6008  0.3896
   52MOL   C20116623   3.351   6.148   3.035  0.1547 -0.1174 -0.3177
   52MOL   C20216624   3.523   6.168   3.304 -0.3231 -0.2511 -0.7195
   52MOL   H20316625   3.453   6.362   3.270 -2.4346 -1.1002  0.5146
   52MOL   H20416626   3.214   6.377   3.253 -0.6870  0.2244  0.0843
   52MOL   H20516627   3.029   6.169   2.923  0.5077 -0.6157  0.5088
   52MOL   H20616628   3.236   6.044   2.878 -1.8473  2.0183 -1.9712
   52MOL   H20716629   3.445   6.098   3.015 -0.0051 -0.3413 -0.5094
   52MOL   H20816630   3.568   6.091   3.241  1.2227 -1.2649  1.5523
   52MOL   H20916631   3.609   6.207   3.359 -1.3908  0.2911  0.5733
   52MOL   C21016632   3.418   6.107   3.394 -0.0048 -0.4473 -0.5320
   52MOL   C21116633   3.470   5.981   3.454  0.0960  0.2400 -0.8262
   52MOL   C21216634   3.580   5.979   3.545  0.0724 -0.4320  0.1256
   52MOL   C21316635   3.623   5.858   3.603  0.1271  0.6503  0.2365
   52MOL  Cl21416636   3.747   5.859   3.723 -0.0978  0.3102 -0.2177
   52MOL   C21516637   3.562   5.741   3.565  0.2379  0.0908  0.4013
   52MOL   C21616638   3.463   5.735   3.467 -0.3385  0.0160 -0.4282
   52MOL   C21716639   3.422   5.858   3.407 -0.1195 -0.1984  0.0097
   52MOL   C21816640   3.362   6.207   3.500 -0.8353 -0.4667  0.1752
   52MOL   H21916641   3.329   6.080   3.337 -0.8928  0.4856  0.3934
   52MOL   H22016642   3.627   6.071   3.576  2.6069 -2.0825  1.4035
   52MOL   H22116643   3.579   5.648   3.616  1.4234  1.2567  2.1873
   52MOL   H22216644   3.440   5.641   3.419 -0.4136  0.0430 -0.4439
   52MOL   H22316645   3.350   5.850   3.327  0.1570  0.6451 -0.3208
   52MOL   H22416646   3.456   6.235   3.548 -1.4324  1.3729  0.3111
   52MOL   H22516647   3.322   6.291   3.443 -1.0781 -0.2332  0.6848
   52MOL   C22616648   3.271   6.163   3.618  0.1527  0.3349  0.1359
   52MOL   C22716649   3.301   6.234   3.749  0.3823  0.2806 -0.0990
   52MOL   C22816650   3.288   6.376   3.765  0.3527 -0.0920  0.0003
   52MOL   C22916651   3.321   6.436   3.890  0.0824 -0.1912  0.6891
   52MOL  Cl23016652   3.337   6.606   3.907  0.2337 -0.1110 -0.0791
   52MOL   C23116653   3.357   6.354   3.999 -0.0400 -0.0886  0.1768
   52MOL   C23216654   3.367   6.217   3.989  0.5699 -0.3832 -0.0188
   52MOL   C23316655   3.352   6.159   3.861  0.1304 -0.5238  0.2771
   52MOL   C23416656   3.118   6.157   3.589  0.0652 -0.0376  0.2221
   52MOL   H23516657   3.292   6.057   3.633 -1.5953  0.1229  1.3097
   52MOL   H23616658   3.253   6.436   3.682  2.2505 -1.2119 -1.6356
   52MOL   H23716659   3.378   6.396   4.096  1.2490 -1.9202  0.7058
   52MOL   H23816660   3.409   6.158   4.069  0.5084  0.1784  0.4389
   52MOL   H23916661   3.384   6.058   3.843  1.4821 -0.3119  1.3664
   52MOL   H24016662   3.068   6.252   3.607  1.3896  0.1693  3.1826
   52MOL   H24116663   3.116   6.149   3.481 -0.1782 -0.4743  0.2553
   52MOL   C24216664   3.049   6.039   3.655 -0.2048  0.3206  0.0012
   52MOL   C24316665   3.060   6.030   3.805 -0.0300  0.0249 -1.3487
   52MOL   C24416666   3.003   6.132   3.890  0.0947 -0.0714  0.3994
   52MOL   C24516667   3.024   6.123   4.031 -0.4273 -0.2293 -0.8576
   52MOL  Cl24616668   2.969   6.250   4.135 -0.1187 -0.1596 -0.1502
   52MOL   C24716669   3.097   6.016   4.088  0.4532  0.0510 -0.1030
   52MOL   C24816670   3.145   5.913   4.005  0.5521  0.1972 -0.2717
   52MOL   C24916671   3.121   5.919   3.870 -0.7843  0.0445  0.4158
   52MOL   C25016672   2.901   6.036   3.622 -0.5777  0.3214 -0.7283
   52MOL   H25116673   3.106   5.956   3.612 -0.9746 -1.5463  2.4243
   52MOL   H25216674   2.939   6.213   3.858 -0.8307 -0.6569  0.7485
   52MOL   H25316675   3.113   6.017   4.195  1.1560 -0.6434 -0.2010
   52MOL   H25416676   3.202   5.829   4.043 -1.1412 -0.6111  0.5340
   52MOL   H25516677   3.165   5.841   3.810  1.0777  0.9532  0.5646
   52MOL   H25616678   2.864   5.949   3.677  1.6233 -0.1485  0.0486
   52MOL   H25716679   2.845   6.123   3.658 -1.3711  0.3210 -1.9472
   52MOL   C25816680   2.857   6.017   3.480  0.7666  0.6288  0.1190
   52MOL   C25916681   2.947   5.932   3.401  0.1733  0.0905  0.4617
   52MOL   C26016682   2.969   5.798   3.441 -0.4903  0.3142 -0.2310
   52MOL   C26116683   3.053   5.711   3.362  0.2941 -0.6444 -0.2266
   52MOL  Cl26216684   3.114   5.554   3.405  0.4595 -0.4822 -0.4888
   52MOL   C26316685   3.097   5.753   3.238 -0.0276  0.1033  0.0253
   52MOL   C26416686   3.078   5.884   3.198  0.4981 -0.1457 -0.4527
   52MOL   C26516687   3.002   5.978   3.279  0.5387  0.2505  1.0266
   52MOL   C26616688   2.712   5.966   3.467 -0.5661 -0.0601 -0.0935
   52MOL   H26716689   2.877   6.114   3.434  0.5119  1.0790  0.9503
   52MOL   H26816690   2.936   5.752   3.533  0.1100  0.6445  0.1567
   52MOL   H26916691   3.152   5.689   3.170  0.8731 -0.7878  1.5517
   52MOL   H27016692   3.117   5.920   3.104  1.8198 -0.2032  0.0669
   52MOL   H27116693   2.976   6.077   3.243 -1.7627 -0.9075 -0.5734
   52MOL   H27216694   2.698   5.867   3.424 -0.9408 -0.0731  0.0517
   52MOL   H27316695   2.663   5.963   3.564 -2.9139  0.7785 -1.1964
   52MOL   C27416696   2.608   6.055   3.381 -0.5885  0.1647  0.6822
   52MOL   C27516697   2.483   5.976   3.330 -0.6578  0.2044  0.4437
   52MOL   C27616698   2.447   5.969   3.195 -0.0065 -0.1450  0.5279
   52MOL   C27716699   2.329   5.905   3.160 -0.5875 -0.2801 -0.1283
   52MOL  Cl27816700   2.290   5.906   2.995 -0.5328 -0.0000  0.0131
   52MOL   C27916701   2.244   5.847   3.256 -0.0911  0.1847  0.2076
   52MOL   C28016702   2.280   5.855   3.392 -0.0893  0.5912 -0.3066
   52MOL   C28116703   2.406   5.907   3.427  0.0351  0.0346  0.6574
   52MOL   C28216704   2.559   6.177   3.456  0.9174  0.1509  0.1842
   52MOL   H28316705   2.665   6.099   3.299  0.3500  0.6350  1.5743
   52MOL   H28416706   2.516   6.005   3.119  0.5221  0.7473  1.4077
   52MOL   H28516707   2.163   5.785   3.220 -0.4328  0.7747 -0.0544
   52MOL   H28616708   2.209   5.814   3.463  1.0077 -0.9956 -0.0980
   52MOL   H28716709   2.440   5.896   3.529 -2.9443 -1.2578  1.5700
   52MOL   H28816710   2.499   6.141   3.540  1.6461  2.1922  1.6232
   52MOL   H28916711   2.639   6.241   3.493  1.0971 -0.5183  0.9634
   52MOL   C29016712   2.464   6.268   3.371 -0.5103 -0.3524  0.1157
   52MOL   C29116713   2.382   6.362   3.455  0.0808 -0.3021 -0.0380
   52MOL   C29216714   2.242   6.343   3.465  0.3639 -0.7637  0.5716
   52MOL   C29316715   2.159   6.424   3.534 -0.1788  1.0824 -0.2724
   52MOL  Cl29416716   1.990   6.394   3.552 -0.4352 -0.2035 -0.0683
   52MOL   C29516717   2.213   6.530   3.608  0.6260 -0.3315 -0.2139
   52MOL   C29616718   2.358   6.547   3.610  1.2805 -0.1806 -0.0118
   52MOL   C29716719   2.445   6.462   3.534  0.0899 -0.5233  0.1669
   52MOL   C29816720   2.542   6.353   3.269  0.3004  0.2775  0.7486
   52MOL   H29916721   2.385   6.208   3.327 -1.1064  1.0897 -0.8232
   52MOL   H30016722   2.192   6.266   3.408  1.6036  0.8134 -2.7835
   52MOL   H30116723   2.151   6.599   3.664  3.1102 -0.4557  2.8677
   52MOL   H30216724   2.401   6.628   3.668  0.5097  0.0496  0.2370
   52MOL   H30316725   2.552   6.471   3.535 -0.0438  1.5277 -1.2533
   52MOL   H30416726   2.543   6.459   3.293 -1.8299  0.6782 -0.7923
   52MOL   H30516727   2.646   6.319   3.277  0.7717  1.1563 -1.3785
   52MOL   C30616728   2.491   6.356   3.126 -0.2154  0.1999 -0.1854
   52MOL   C30716729   2.340   6.364   3.101 -0.3350  0.5041 -0.9060
   52MOL   C30816730   2.260   6.469   3.156  0.0443  0.6739 -0.0873
   52MOL   C30916731   2.124   6.478   3.118  0.1233 -0.8222  0.7019
   52MOL  Cl31016732   2.022   6.593   3.192  0.1643 -0.0101  0.2161
   52MOL   C31116733   2.062   6.387   3.032  0.3016 -0.4353 -0.0388
   52MOL   C31216734   2.141   6.274   2.994 -0.0674 -0.1801  0.1618
   52MOL   C31316735   2.281   6.264   3.020 -0.0932 -0.1591  0.1252
   52MOL   C31416736   2.569   6.472   3.050 -0.2483  1.2766 -0.2289
   52MOL   H31516737   2.522   6.260   3.087 -1.7714 -0.2448 -0.3746
   52MOL   H31616738   2.304   6.539   3.226 -2.0710  1.6218  0.3184
   52MOL   H31716739   1.959   6.391   2.999  0.1774 -0.7510  0.3129
   52MOL   H31816740   2.099   6.201   2.926 -0.5638  2.4734 -2.4441
   52MOL   H31916741   2.340   6.184   2.976 -1.6928 -1.4824  0.3194
   52MOL   H32016742   2.554   6.448   2.944  1.2436 -1.0656  0.0658
   52MOL   H32116743   2.524   6.570   3.066 -3.3461 -0.4239  1.9881
   52MOL   H32216744   2.674   6.477   3.077 -0.6045  0.7212  1.3160
   53MOL     C116745   2.396   6.994   7.302 -0.5712 -0.5142 -0.3685
   53MOL     C216746   2.495   7.002   7.417  0.3523 -0.1844 -0.4134
   53MOL     C316747   2.481   7.113   7.506  0.7129  0.8259  0.1261
   53MOL     C416748   2.582   7.136   7.600  0.8673  0.4921 -0.2902
   53MOL    Cl516749   2.572   7.275   7.703  0.0240 -0.4259  0.1160
   53MOL     C616750   2.696   7.046   7.612 -0.6501  0.0150 -0.1478
   53MOL     C716751   2.714   6.944   7.512  0.0888 -0.5555  0.4352
   53MOL     C816752   2.615   6.923   7.419 -0.1438 -0.3616 -0.3145
   53MOL     C916753   2.453   7.080   7.185 -0.0302 -0.1689  0.2894
   53MOL    H1016754   2.290   7.012   7.319 -0.6160  0.1209 -1.2861
   53MOL    H1116755   2.395   7.178   7.499 -0.9496 -1.1426  1.5812
   53MOL    H1216756   2.769   7.072   7.686  0.2362 -1.6969 -0.4074
   53MOL    H1316757   2.798   6.876   7.517  0.3054 -0.2959  0.2808
   53MOL    H1416758   2.620   6.852   7.338 -2.7449 -1.2239  0.2370
   53MOL    H1516759   2.469   7.184   7.213 -3.0186 -0.4069  3.2348
   53MOL    H1616760   2.546   7.031   7.156  1.5158  1.4985  2.3235
   53MOL    H1716761   2.391   6.890   7.272 -1.5490 -1.3058  2.3990
   53MOL    C1816762   2.367   7.082   7.051 -0.4894 -0.1239 -0.3020
   53MOL    C1916763   2.344   6.941   6.983 -0.0082  0.3642 -0.3322
   53MOL    C2016764   2.438   6.911   6.882 -0.4979 -0.2500 -0.0311
   53MOL    C2116765   2.430   6.780   6.824  0.1656  0.5326 -0.1830
   53MOL   Cl2216766   2.528   6.742   6.687 -0.2765  0.4947  0.1200
   53MOL    C2316767   2.330   6.687   6.858  0.0954 -0.3026  0.3332
   53MOL    C2416768   2.238   6.721   6.951  0.1295 -0.3346  0.3196
   53MOL    C2516769   2.238   6.850   7.016  0.3949  0.1481 -0.1577
   53MOL    C2616770   2.234   7.166   7.076 -0.3760 -0.4488 -0.0247
   53MOL    H2716771   2.430   7.143   6.986  1.0708 -1.5265 -0.1683
   53MOL    H2816772   2.517   6.978   6.853  0.8265 -0.4209  2.9769
   53MOL    H2916773   2.327   6.589   6.813  0.1524 -0.2532  0.2224
   53MOL    H3016774   2.166   6.649   6.985 -0.2662 -0.9739 -1.7954
   53MOL    H3116775   2.166   6.877   7.091  0.0641 -1.5682  0.1708
   53MOL    H3216776   2.179   7.119   7.157  1.0536  0.2422  1.3680
   53MOL    H3316777   2.261   7.263   7.116  0.1315 -0.4596 -0.3433
   53MOL    C3416778   2.136   7.189   6.957  0.9410 -0.0392  0.7895
   53MOL    C3516779   2.007   7.264   7.017 -0.0457  0.0714 -0.7996
   53MOL    C3616780   1.878   7.209   6.999 -0.3230  0.2871 -0.0430
   53MOL    C3716781   1.763   7.275   7.046  0.7168 -0.1693 -0.9171
   53MOL   Cl3816782   1.612   7.200   7.040  0.4547 -0.4290  0.0682
   53MOL    C3916783   1.783   7.405   7.093  0.1259 -0.7042 -0.3450
   53MOL    C4016784   1.915   7.450   7.122 -0.0522 -0.2231  0.4792
   53MOL    C4116785   2.029   7.380   7.091  0.0799  0.0913 -0.7832
   53MOL    C4216786   2.194   7.263   6.835  0.2527 -0.5823  0.6291
   53MOL    H4316787   2.095   7.092   6.930 -2.3597  1.2452  0.9217
   53MOL    H4416788   1.868   7.119   6.939 -1.5460  0.2801  0.1683
   53MOL    H4516789   1.699   7.464   7.124  0.3212 -0.5844 -0.0449
   53MOL    H4616790   1.927   7.544   7.173  0.0407  0.2695 -0.4342
   53MOL    H4716791   2.126   7.415   7.122  0.0735  0.4177 -1.1159
   53MOL    H4816792   2.132   7.342   6.793  1.8181 -0.6262 -1.8866
   53MOL    H4916793   2.290   7.307   6.861 -0.2637  1.4027 -0.7451
   53MOL    C5016794   2.217   7.174   6.706  0.3620  0.4957 -0.0383
   53MOL    C5116795   2.091   7.087   6.684  0.0416  0.1587 -0.4238
   53MOL    C5216796   2.108   6.948   6.686 -0.4544  0.0620  0.1597
   53MOL    C5316797   1.990   6.869   6.659 -0.6949 -0.0600  0.2245
   53MOL   Cl5416798   1.992   6.700   6.661  0.2616  0.4542  0.0367
   53MOL    C5516799   1.863   6.929   6.660 -0.0027  0.0739 -0.5520
   53MOL    C5616800   1.847   7.068   6.671 -0.2797  0.2404  0.1102
   53MOL    C5716801   1.959   7.144   6.682 -0.3878  0.0506 -0.2908
   53MOL    C5816802   2.256   7.260   6.582  0.4649  0.0337 -1.0083
   53MOL    H5916803   2.295   7.102   6.729 -2.0255 -2.6788 -1.5697
   53MOL    H6016804   2.204   6.900   6.693  0.1623  1.0458 -1.2997
   53MOL    H6116805   1.781   6.863   6.634 -0.0938  0.0400 -0.1809
   53MOL    H6216806   1.751   7.118   6.674 -0.8472 -0.6668 -2.1686
   53MOL    H6316807   1.939   7.250   6.688  1.2910  0.4860 -1.8082
   53MOL    H6416808   2.276   7.186   6.505 -2.2638 -1.7059 -0.1175
   53MOL    H6516809   2.163   7.308   6.551 -0.7001 -1.2862  0.4110
   53MOL    C6616810   2.381   7.348   6.592  0.2635 -0.4884  0.4354
   53MOL    C6716811   2.513   7.265   6.622 -0.4067 -0.5644  0.3827
   53MOL    C6816812   2.572   7.187   6.517 -0.1530 -0.3218 -0.5427
   53MOL    C6916813   2.691   7.123   6.541  0.0997 -0.2909 -0.7547
   53MOL   Cl7016814   2.770   7.024   6.426 -0.1265  0.5019 -0.2335
   53MOL    C7116815   2.750   7.137   6.668 -0.1688  0.3963 -0.0178
   53MOL    C7216816   2.698   7.217   6.773  0.1452 -0.0241  0.2156
   53MOL    C7316817   2.569   7.281   6.750  0.5319  0.2599  0.6422
   53MOL    C7416818   2.384   7.446   6.474  0.3739 -0.6576 -0.0274
   53MOL    H7516819   2.362   7.410   6.679  0.9661 -1.7859  1.5281
   53MOL    H7616820   2.518   7.178   6.424 -0.5447  2.3718 -0.6157
   53MOL    H7716821   2.844   7.085   6.676 -0.1095  0.6897  1.2018
   53MOL    H7816822   2.747   7.245   6.864 -0.2491 -0.9503  0.7164
   53MOL    H7916823   2.515   7.337   6.825 -0.9939 -1.1490  0.6326
   53MOL    H8016824   2.380   7.390   6.381 -1.0181  0.4095 -0.6313
   53MOL    H8116825   2.291   7.503   6.481  0.8976  0.1366  0.5037
   53MOL    C8216826   2.496   7.554   6.471  0.1994  0.4806  0.2365
   53MOL    C8316827   2.602   7.503   6.369  0.4760  0.0742  0.6111
   53MOL    C8416828   2.727   7.462   6.417  0.3449  0.2635  0.0944
   53MOL    C8516829   2.820   7.402   6.333  0.6173  0.0642 -0.1171
   53MOL   Cl8616830   2.975   7.363   6.392  0.3832  0.0640  0.2165
   53MOL    C8716831   2.787   7.376   6.195  0.2336 -0.2966 -0.6044
   53MOL    C8816832   2.665   7.431   6.140 -0.7016 -0.1069  0.0349
   53MOL    C8916833   2.575   7.491   6.231 -0.2927 -0.0238  0.3033
   53MOL    C9016834   2.450   7.697   6.417 -0.4201  0.3928  0.4695
   53MOL    H9116835   2.533   7.560   6.573  0.0493  0.0217  0.3189
   53MOL    H9216836   2.744   7.462   6.524 -1.1211 -2.5600  0.3590
   53MOL    H9316837   2.858   7.324   6.132  0.3242  1.2911 -1.8556
   53MOL    H9416838   2.628   7.422   6.039 -0.1095 -3.7703  0.0740
   53MOL    H9516839   2.480   7.513   6.185  0.0532 -0.8491 -0.8477
   53MOL    H9616840   2.537   7.745   6.372 -1.4776  2.7310  0.8777
   53MOL    H9716841   2.387   7.676   6.330 -0.0905  2.2857 -0.2350
   53MOL    C9816842   2.383   7.784   6.523 -0.1981 -0.3755  0.2977
   53MOL    C9916843   2.477   7.867   6.610  0.3868  0.4739  0.2939
   53MOL   C10016844   2.566   7.958   6.553 -0.0476  0.7927 -0.7818
   53MOL   C10116845   2.634   8.058   6.628 -0.4232  0.8753 -0.0304
   53MOL  Cl10216846   2.755   8.152   6.554  0.5544  0.5080  0.4009
   53MOL   C10316847   2.613   8.061   6.769  0.3874 -0.0551  0.3328
   53MOL   C10416848   2.526   7.969   6.829  0.2178 -0.2586  0.4819
   53MOL   C10516849   2.455   7.877   6.751 -0.3216 -0.1866  0.0878
   53MOL   C10616850   2.271   7.876   6.467 -0.0536 -0.1537 -0.6826
   53MOL   H10716851   2.347   7.704   6.587 -1.4845 -1.3365 -1.5630
   53MOL   H10816852   2.587   7.973   6.448  3.3713 -3.1426 -0.8115
   53MOL   H10916853   2.665   8.137   6.824  0.6396  0.7791 -1.0387
   53MOL   H11016854   2.539   7.960   6.936  0.8071  0.5536  0.4865
   53MOL   H11116855   2.382   7.814   6.800  0.9590 -2.1177 -0.3923
   53MOL   H11216856   2.278   7.967   6.526  3.7773 -1.3373  0.8419
   53MOL   H11316857   2.284   7.912   6.365  2.0813 -0.2253 -0.4599
   53MOL   C11416858   2.130   7.818   6.501 -0.1324  0.0925  0.5552
   53MOL   C11516859   2.101   7.813   6.643  0.6489  0.5715 -0.2508
   53MOL   C11616860   2.094   7.926   6.727  0.8331 -0.2306  0.1513
   53MOL   C11716861   2.067   7.911   6.865  0.3025  0.0135  0.5643
   53MOL  Cl11816862   2.061   8.056   6.950  0.2632  0.5000 -0.5161
   53MOL   C11916863   2.054   7.787   6.930  0.3322  0.0286 -0.6609
   53MOL   C12016864   2.051   7.676   6.840 -0.1039 -0.2238 -0.2387
   53MOL   C12116865   2.080   7.688   6.705  0.5087 -0.1451  0.6001
   53MOL   C12216866   2.023   7.887   6.410 -0.2490  0.2223 -0.6589
   53MOL   H12316867   2.142   7.716   6.467  1.1899 -0.7511  3.4067
   53MOL   H12416868   2.110   8.020   6.677 -1.4418 -0.0186 -0.2247
   53MOL   H12516869   2.042   7.774   7.036  0.9439  1.0627 -0.4566
   53MOL   H12616870   2.032   7.576   6.876 -1.6963 -0.6529 -2.1674
   53MOL   H12716871   2.075   7.593   6.655  1.7479  0.3839 -0.5844
   53MOL   H12816872   1.938   7.913   6.474 -0.4262 -1.5311 -0.1702
   53MOL   H12916873   2.061   7.985   6.381 -0.3831  0.4897  0.0608
   53MOL   C13016874   1.970   7.804   6.289 -0.7544 -0.2449  0.1839
   53MOL   C13116875   1.932   7.659   6.328  0.4134 -0.4101  0.0833
   53MOL   C13216876   1.856   7.632   6.447  0.3901  0.0163  0.0326
   53MOL   C13316877   1.851   7.505   6.501  0.0595  0.2117 -0.6091
   53MOL  Cl13416878   1.785   7.476   6.660 -0.4317 -0.1956  0.5402
   53MOL   C13516879   1.914   7.401   6.424 -0.7279  0.3238  0.2450
   53MOL   C13616880   1.978   7.425   6.303 -0.1923 -0.1214  0.9078
   53MOL   C13716881   1.997   7.559   6.254 -0.4211 -0.4550  0.2799
   53MOL   C13816882   1.850   7.881   6.216 -0.1114 -0.1753  0.0274
   53MOL   H13916883   2.053   7.801   6.219 -0.2441 -0.7815  0.7961
   53MOL   H14016884   1.815   7.714   6.504 -0.4511  1.0386 -1.9792
   53MOL   H14116885   1.912   7.296   6.449  1.1678 -0.3542 -2.2114
   53MOL   H14216886   2.020   7.346   6.243  0.3924  0.5776  0.3896
   53MOL   H14316887   2.052   7.583   6.164 -0.9265 -4.0624 -1.0676
   53MOL   H14416888   1.759   7.821   6.216  0.3163 -0.8541  2.1439
   53MOL   H14516889   1.826   7.966   6.280 -1.7866 -1.7849  1.5845
   53MOL   C14616890   1.885   7.929   6.069 -0.4127 -0.1955  0.0733
   53MOL   C14716891   2.000   8.026   6.063 -0.2716  0.1332 -0.3935
   53MOL   C14816892   1.989   8.164   6.096 -0.3532  0.2087 -0.2290
   53MOL   C14916893   2.098   8.250   6.094  0.6646  0.1676 -0.0708
   53MOL  Cl15016894   2.078   8.406   6.155  0.1511  0.0043 -0.0955
   53MOL   C15116895   2.226   8.206   6.055 -0.6884  0.0742  0.0828
   53MOL   C15216896   2.241   8.067   6.032 -0.7621 -0.4262 -0.2763
   53MOL   C15316897   2.130   7.986   6.030 -0.3482 -0.0071 -0.4125
   53MOL   C15416898   1.894   7.807   5.982  0.2454 -0.1438 -0.2586
   53MOL   H15516899   1.804   7.982   6.018 -0.0019 -1.5195 -2.0140
   53MOL   H15616900   1.895   8.199   6.136 -0.7939 -2.1727  0.8913
   53MOL   H15716901   2.303   8.279   6.035 -1.7945  0.3350 -3.4790
   53MOL   H15816902   2.338   8.030   6.002 -1.5106  0.1320 -3.5419
   53MOL   H15916903   2.147   7.882   6.006  1.4360  0.1508  0.1180
   53MOL   H16016904   1.943   7.848   5.893 -0.1554  2.7578  0.8183
   53MOL   H16116905   1.964   7.733   6.023 -0.7677 -0.3371  1.1420
   53MOL   C16216906   1.765   7.749   5.925  0.7608  0.1441 -0.1064
   53MOL   C16316907   1.793   7.660   5.796 -0.0861 -0.5559 -0.2014
   53MOL   C16416908   1.867   7.541   5.799  0.3843 -0.2104  0.0687
   53MOL   C16516909   1.900   7.473   5.680 -0.6402  0.0360  0.4415
   53MOL  Cl16616910   1.981   7.319   5.699 -0.6732 -0.3907 -0.0130
   53MOL   C16716911   1.874   7.528   5.555  0.3812  1.0750 -0.0653
   53MOL   C16816912   1.807   7.655   5.550 -0.1478  0.0024  0.5502
   53MOL   C16916913   1.763   7.711   5.672  0.0100  1.1433  0.9810
   53MOL   C17016914   1.673   7.680   6.026 -0.0842 -0.1837 -1.0596
   53MOL   H17116915   1.717   7.840   5.888  0.0585  0.0227  0.4987
   53MOL   H17216916   1.894   7.496   5.893  0.0630  1.2015  0.8527
   53MOL   H17316917   1.909   7.481   5.465  0.9632 -2.7805  2.0655
   53MOL   H17416918   1.778   7.707   5.460  1.2233 -0.3683 -0.1257
   53MOL   H17516919   1.717   7.809   5.669 -0.3119  0.9547 -0.4249
   53MOL   H17616920   1.750   7.634   6.088 -2.9864 -2.6011  0.9225
   53MOL   H17716921   1.617   7.747   6.091  1.2279  0.5056 -0.6198
   53MOL   C17816922   1.579   7.564   5.983 -0.3302 -0.1269 -0.3221
   53MOL   C17916923   1.566   7.473   6.107 -0.1786 -0.0209 -0.0262
   53MOL   C18016924   1.646   7.362   6.107  0.4078  0.2421  0.1113
   53MOL   C18116925   1.637   7.272   6.218 -0.1751  1.0857  0.2869
   53MOL  Cl18216926   1.747   7.133   6.217  0.3293 -0.1633  0.8370
   53MOL   C18316927   1.555   7.304   6.327  0.0584  0.4952 -0.9425
   53MOL   C18416928   1.488   7.426   6.335 -0.0019 -0.9428 -0.3086
   53MOL   C18516929   1.492   7.510   6.218 -0.0566 -0.5909  0.2922
   53MOL   C18616930   1.447   7.614   5.921 -0.0955 -0.7171  0.0283
   53MOL   H18716931   1.628   7.508   5.903 -0.7495 -0.2877 -0.4697
   53MOL   H18816932   1.719   7.343   6.029  1.5767 -0.6565  1.3980
   53MOL   H18916933   1.562   7.247   6.419 -1.0844  0.4627 -0.8688
   53MOL   H19016934   1.434   7.460   6.422  1.5550  0.8996 -0.0282
   53MOL   H19116935   1.423   7.593   6.211  0.5769 -0.1490 -0.8645
   53MOL   H19216936   1.377   7.661   5.989  0.5233  0.5276 -0.1757
   53MOL   H19316937   1.478   7.697   5.857 -3.8450  0.6882 -0.0518
   53MOL   C19416938   1.370   7.511   5.843  0.4430  0.5128  0.1776
   53MOL   C19516939   1.222   7.545   5.820  0.4285 -0.3631 -0.5514
   53MOL   C19616940   1.127   7.440   5.832 -0.2815 -0.2778  0.1293
   53MOL   C19716941   0.990   7.474   5.819  0.0585 -0.4559 -0.4732
   53MOL  Cl19816942   0.875   7.349   5.829 -0.1779 -0.1239  0.0818
   53MOL   C19916943   0.949   7.598   5.775  1.1335  0.7630 -0.1703
   53MOL   C20016944   1.044   7.701   5.759  0.5053 -0.3384  0.7271
   53MOL   C20116945   1.176   7.674   5.782  0.3109 -0.1054 -0.4297
   53MOL   C20216946   1.447   7.466   5.705 -0.1835 -0.3741  0.2600
   53MOL   H20316947   1.362   7.413   5.889  2.8107  0.1405 -0.1454
   53MOL   H20416948   1.158   7.338   5.845  0.0926 -0.1143  0.5501
   53MOL   H20516949   0.847   7.622   5.750  0.2277 -1.1635  1.5945
   53MOL   H20616950   1.001   7.797   5.735 -0.4606 -1.2627 -1.3990
   53MOL   H20716951   1.248   7.752   5.765  1.5618 -0.8884  1.1303
   53MOL   H20816952   1.475   7.553   5.646  1.6318 -3.2551 -3.3774
   53MOL   H20916953   1.547   7.423   5.716 -0.0673 -0.2891 -0.3961
   53MOL   C21016954   1.373   7.375   5.606 -0.5456 -0.6056 -0.4890
   53MOL   C21116955   1.418   7.389   5.466 -0.5613 -0.7196  0.8880
   53MOL   C21216956   1.316   7.399   5.361  0.3587  0.0057 -0.2516
   53MOL   C21316957   1.351   7.409   5.225  0.1079  0.1510  0.4044
   53MOL  Cl21416958   1.230   7.419   5.100  0.1270 -0.1255  0.2500
   53MOL   C21516959   1.485   7.405   5.193 -0.7004 -0.0927 -0.3186
   53MOL   C21616960   1.579   7.404   5.296  0.0079  0.7055  0.6229
   53MOL   C21716961   1.547   7.387   5.430  0.2259  0.4682 -0.1841
   53MOL   C21816962   1.370   7.232   5.659  0.0182 -0.0307  0.5463
   53MOL   H21916963   1.268   7.405   5.600 -0.2896  0.5842  0.6656
   53MOL   H22016964   1.212   7.386   5.389 -0.2263  1.0841 -1.8077
   53MOL   H22116965   1.527   7.427   5.096  0.1412 -3.2107 -0.7330
   53MOL   H22216966   1.684   7.418   5.277  0.3642  1.1676  2.7823
   53MOL   H22316967   1.621   7.383   5.508 -0.9295 -0.4541  0.8743
   53MOL   H22416968   1.477   7.213   5.648  0.3275  1.5753  0.5831
   53MOL   H22516969   1.353   7.230   5.766 -1.2776  2.1165  0.4098
   53MOL   C22616970   1.292   7.120   5.591  0.6949  0.2398 -1.1107
   53MOL   C22716971   1.343   6.981   5.621  0.0399  0.2378 -0.3847
   53MOL   C22816972   1.342   6.918   5.749  0.3093 -0.7558  0.0970
   53MOL   C22916973   1.411   6.795   5.768 -0.6183  0.0659 -0.5585
   53MOL  Cl23016974   1.391   6.699   5.914 -0.0133  0.1552  0.0361
   53MOL   C23116975   1.477   6.731   5.665  1.1535  0.1028  0.4522
   53MOL   C23216976   1.471   6.785   5.537 -0.4077 -0.1369 -0.0661
   53MOL   C23316977   1.407   6.908   5.511  0.2161 -0.2229 -0.7589
   53MOL   C23416978   1.137   7.131   5.604  0.6796 -1.2240 -0.4198
   53MOL   H23516979   1.320   7.144   5.489  2.4892 -2.7863 -1.3939
   53MOL   H23616980   1.276   6.961   5.823 -1.2478 -0.7916 -1.2507
   53MOL   H23716981   1.515   6.632   5.688  0.1186 -0.7859 -1.5617
   53MOL   H23816982   1.509   6.732   5.451  0.8855  0.1474  0.3217
   53MOL   H23916983   1.427   6.950   5.414  1.5000 -1.9239 -1.2497
   53MOL   H24016984   1.123   7.104   5.709  1.6605  0.6271  0.2238
   53MOL   H24116985   1.113   7.237   5.596 -0.2968 -1.3740  0.4958
   53MOL   C24216986   1.052   7.034   5.518  0.1500  0.1148 -0.6812
   53MOL   C24316987   0.907   7.035   5.558  0.2123  0.4127 -0.3156
   53MOL   C24416988   0.851   6.916   5.608  0.3704  0.0139  0.5167
   53MOL   C24516989   0.716   6.903   5.637 -0.0140 -0.4917  0.4399
   53MOL  Cl24616990   0.649   6.767   5.710 -0.2394  0.3954  0.0679
   53MOL   C24716991   0.631   7.011   5.603 -0.3455  0.8091  0.2340
   53MOL   C24816992   0.679   7.132   5.561 -0.6014 -0.5089 -0.5857
   53MOL   C24916993   0.820   7.149   5.545  0.2184  0.1383  0.2566
   53MOL   C25016994   1.074   7.063   5.366  0.1420 -0.3731 -0.6340
   53MOL   H25116995   1.094   6.935   5.533  0.3208  0.5638  2.0622
   53MOL   H25216996   0.904   6.823   5.625 -1.3202 -0.7644  1.6366
   53MOL   H25316997   0.524   7.009   5.619 -0.2566  0.3717  0.8169
   53MOL   H25416998   0.612   7.213   5.538 -1.1102 -0.6037  0.5304
   53MOL   H25516999   0.856   7.246   5.512  1.5430  0.7384  3.2930
   53MOL   H25617000   1.043   7.167   5.353  0.6984  0.1467  1.9494
   53MOL   H25717001   1.177   7.054   5.332  0.6464  2.1120  0.1883
   53MOL   C25817002   0.979   6.990   5.268  0.2715  0.1893 -0.1667
   53MOL   C25917003   0.871   7.074   5.203 -0.2527 -0.5623 -0.1235
   53MOL   C26017004   0.898   7.176   5.113 -0.2764  0.2922 -0.3393
   53MOL   C26117005   0.794   7.256   5.058  0.4700  0.3810 -0.7643
   53MOL  Cl26217006   0.824   7.374   4.934 -0.4466  0.1703 -0.0015
   53MOL   C26317007   0.658   7.232   5.099 -0.1344 -0.4745 -0.5439
   53MOL   C26417008   0.626   7.122   5.184 -0.8221 -0.6703  0.3622
   53MOL   C26517009   0.732   7.047   5.235 -0.0105  0.0524 -0.0916
   53MOL   C26617010   1.064   6.917   5.161 -0.2801 -0.3061  0.1590
   53MOL   H26717011   0.919   6.917   5.322 -0.1065  0.3007 -0.4343
   53MOL   H26817012   1.003   7.196   5.093  0.2312 -1.4304  0.4404
   53MOL   H26917013   0.580   7.301   5.069  0.6227  0.6026 -0.0925
   53MOL   H27017014   0.523   7.102   5.210 -0.0353 -0.2060  3.9909
   53MOL   H27117015   0.723   6.967   5.307  2.6737  0.8701  1.2460
   53MOL   H27217016   0.997   6.895   5.078 -2.2140  0.4173  1.5059
   53MOL   H27317017   1.130   6.992   5.116 -2.9613  3.4727  2.2173
   53MOL   C27417018   1.142   6.789   5.202  0.4317  0.3644 -0.2863
   53MOL   C27517019   1.050   6.689   5.272 -0.1721  0.7868 -0.5425
   53MOL   C27617020   0.913   6.669   5.227  0.0704 -0.0954 -0.2071
   53MOL   C27717021   0.835   6.572   5.298 -0.3874  0.0429  0.3371
   53MOL  Cl27817022   0.664   6.537   5.263  0.0908 -0.4115 -0.0783
   53MOL   C27917023   0.887   6.510   5.407  0.2143  0.1033  0.6402
   53MOL   C28017024   1.021   6.528   5.453  0.4069  0.1289 -0.2582
   53MOL   C28117025   1.108   6.612   5.378  0.5515 -0.0433 -0.2237
   53MOL   C28217026   1.214   6.727   5.087 -0.2878  0.6562 -0.4021
   53MOL   H28317027   1.220   6.817   5.273 -0.6262  0.7044  0.7711
   53MOL   H28417028   0.877   6.711   5.135 -1.5293 -2.4475 -0.7129
   53MOL   H28517029   0.821   6.443   5.459  0.0675 -1.3521 -1.3371
   53MOL   H28617030   1.055   6.493   5.549 -0.6182 -0.9023 -0.2510
   53MOL   H28717031   1.206   6.636   5.417 -0.4267  0.4337  2.0308
   53MOL   H28817032   1.133   6.705   5.017 -1.9019  2.3260  0.9187
   53MOL   H28917033   1.272   6.808   5.042 -0.9124  1.8252  0.8907
   53MOL   C29017034   1.293   6.589   5.100  0.0831 -0.3173 -0.8245
   53MOL   C29117035   1.322   6.541   4.957  0.5155  0.6695  0.0734
   53MOL   C29217036   1.451   6.563   4.896  0.0894  0.0766 -0.2903
   53MOL   C29317037   1.477   6.525   4.763  0.1569  0.5361 -0.4289
   53MOL  Cl29417038   1.635   6.527   4.691 -0.0507  0.5902  0.1657
   53MOL   C29517039   1.382   6.455   4.687  0.2473 -0.8466 -0.6487
   53MOL   C29617040   1.254   6.436   4.746  0.2146 -0.5356 -0.2375
   53MOL   C29717041   1.224   6.482   4.875 -0.0083  0.0417  0.2921
   53MOL   C29817042   1.410   6.593   5.202 -0.2925 -0.2080 -0.3263
   53MOL   H29917043   1.216   6.520   5.135 -0.8075  0.8695 -0.3918
   53MOL   H30017044   1.529   6.602   4.959  0.2711 -1.8000  0.6634
   53MOL   H30117045   1.411   6.409   4.594 -0.9196  1.7573 -2.3302
   53MOL   H30217046   1.181   6.375   4.695 -0.8587  1.4080 -1.0678
   53MOL   H30317047   1.123   6.475   4.914  0.4168 -1.3156  1.2043
   53MOL   H30417048   1.485   6.662   5.163 -3.2676  1.5481 -3.2763
   53MOL   H30517049   1.386   6.644   5.295  0.1807 -4.6967  2.3802
   53MOL   C30617050   1.450   6.449   5.248 -0.3890 -0.6888  0.1157
   53MOL   C30717051   1.602   6.440   5.247 -0.5200 -1.0814  0.0985
   53MOL   C30817052   1.676   6.494   5.355  0.2748 -0.6756 -0.1159
   53MOL   C30917053   1.814   6.476   5.342 -0.5235 -0.6995 -0.2621
   53MOL  Cl31017054   1.919   6.541   5.463  0.2820  0.1490 -0.3012
   53MOL   C31117055   1.869   6.402   5.235 -0.1560 -0.2960 -0.0986
   53MOL   C31217056   1.801   6.359   5.125 -0.2999 -0.2802  0.1879
   53MOL   C31317057   1.665   6.377   5.138  0.3913  0.0212  0.4375
   53MOL   C31417058   1.388   6.414   5.383  0.3873  0.3268  0.0864
   53MOL   H31517059   1.421   6.379   5.170 -2.1418 -0.5978  0.6545
   53MOL   H31617060   1.635   6.550   5.437  0.9080 -1.0352  0.4602
   53MOL   H31717061   1.976   6.391   5.224 -0.2831 -0.3538 -1.3232
   53MOL   H31817062   1.849   6.320   5.037  1.5501  0.9205  0.6329
   53MOL   H31917063   1.599   6.325   5.070 -0.9915  0.9338  1.0553
   53MOL   H32017064   1.418   6.317   5.422  1.1209  0.7697  0.6487
   53MOL   H32117065   1.423   6.471   5.469 -0.3669 -1.3936  1.5493
   53MOL   H32217066   1.280   6.415   5.370  0.5426  1.0419 -1.2428
   54MOL     C117067   7.655   4.617   4.048 -0.3434  0.2493 -0.6988
   54MOL     C217068   7.606   4.487   4.108 -0.6205 -0.5599 -0.6157
   54MOL     C317069   7.618   4.470   4.246 -0.4201 -0.4883  0.4084
   54MOL     C417070   7.562   4.356   4.300 -0.3059 -1.4803  0.2936
   54MOL    Cl517071   7.551   4.355   4.473  0.0970  0.0387 -0.0450
   54MOL     C617072   7.495   4.264   4.218 -0.2861  0.1660  0.2153
   54MOL     C717073   7.503   4.276   4.080 -0.6473 -0.0387  0.1731
   54MOL     C817074   7.556   4.393   4.019  0.3839  0.1101  0.3787
   54MOL     C917075   7.802   4.634   4.047 -0.1747 -0.6330  0.4205
   54MOL    H1017076   7.601   4.706   4.080 -1.4145 -0.3409 -0.8742
   54MOL    H1117077   7.666   4.550   4.301 -0.9458 -0.5389  0.9379
   54MOL    H1217078   7.450   4.179   4.268  2.8901 -0.5261  2.0864
   54MOL    H1317079   7.456   4.191   4.032  1.1289 -0.0309 -1.6330
   54MOL    H1417080   7.554   4.410   3.912 -1.6548 -0.4640  0.3173
   54MOL    H1517081   7.828   4.734   4.010 -0.6136 -0.6553  0.0553
   54MOL    H1617082   7.841   4.643   4.148 -1.1588 -0.0646  0.7607
   54MOL    H1717083   7.622   4.608   3.944 -0.9008 -4.0587 -0.2382
   54MOL    C1817084   7.899   4.532   3.970  0.4266 -0.0857  0.1111
   54MOL    C1917085   7.856   4.501   3.826 -0.4627 -0.1138  0.2267
   54MOL    C2017086   7.843   4.367   3.779 -0.2740  0.0721  0.4606
   54MOL    C2117087   7.821   4.344   3.640  0.0708 -0.7369 -0.5254
   54MOL   Cl2217088   7.798   4.186   3.582  0.1264  0.2738 -0.0149
   54MOL    C2317089   7.833   4.452   3.555 -0.3454  0.0697  0.1249
   54MOL    C2417090   7.838   4.584   3.591  0.0271  0.1725 -0.2252
   54MOL    C2517091   7.861   4.606   3.729 -0.3295 -0.8747 -0.0203
   54MOL    C2617092   8.045   4.589   3.977 -0.6211 -0.2796  0.0412
   54MOL    H2717093   7.888   4.436   4.021 -1.0187  0.2829  0.5251
   54MOL    H2817094   7.840   4.281   3.844 -1.9762 -1.8802 -2.0631
   54MOL    H2917095   7.823   4.427   3.450 -0.5551 -4.6760  1.1659
   54MOL    H3017096   7.845   4.665   3.520  0.9620  2.1187  2.0273
   54MOL    H3117097   7.889   4.701   3.773  2.0761 -1.3581 -0.4330
   54MOL    H3217098   8.026   4.693   3.949 -1.3522 -0.4023  0.0692
   54MOL    H3317099   8.067   4.592   4.083  1.6440  1.8382 -0.4243
   54MOL    C3417100   8.156   4.526   3.891  0.0852  0.0278 -0.3026
   54MOL    C3517101   8.271   4.627   3.870 -0.5350 -0.7465 -0.3500
   54MOL    C3617102   8.389   4.616   3.949 -0.0650  0.1127 -0.2986
   54MOL    C3717103   0.063   4.709   3.931 -0.3656  1.0781 -0.5485
   54MOL   Cl3817104   0.206   4.693   4.023 -0.0158 -0.2211 -0.0390
   54MOL    C3917105   0.050   4.815   3.840  0.3332 -0.4413 -0.0939
   54MOL    C4017106   8.371   4.826   3.759  0.0421  0.2187  0.5017
   54MOL    C4117107   8.258   4.733   3.778 -1.0353  0.1003 -0.2219
   54MOL    C4217108   8.203   4.390   3.928  0.7407 -0.1803 -0.3033
   54MOL    H4317109   8.113   4.517   3.791  0.9763  1.5625 -0.8307
   54MOL    H4417110   8.402   4.538   4.023 -1.3049  0.0499 -0.1427
   54MOL    H4517111   0.133   4.885   3.841 -0.3068  0.3277  0.9633
   54MOL    H4617112   8.368   4.900   3.680  0.7942 -0.1630  0.1133
   54MOL    H4717113   8.167   4.750   3.722 -0.7583  0.3837 -0.5901
   54MOL    H4817114   8.252   4.381   4.025 -0.6898 -0.8672  0.3705
   54MOL    H4917115   8.108   4.338   3.940  0.3522  1.0435  2.1780
   54MOL    C5017116   8.277   4.322   3.812 -1.2972  0.1511  0.3002
   54MOL    C5117117   8.393   4.239   3.873  0.0559  0.1672 -0.1649
   54MOL    C5217118   8.375   4.107   3.908 -0.2381 -0.1464 -0.1185
   54MOL    C5317119   0.047   4.044   3.976  0.2020  0.4819  0.0113
   54MOL   Cl5417120   0.028   3.879   4.025 -0.0178 -0.1059 -0.0871
   54MOL    C5517121   0.167   4.115   4.005 -0.0629 -0.0061 -0.9318
   54MOL    C5617122   0.183   4.251   3.978  0.4355  0.6581  0.5988
   54MOL    C5717123   0.075   4.306   3.903 -0.0439 -0.2112  0.0516
   54MOL    C5817124   8.186   4.243   3.718  0.0111 -0.0039 -0.0279
   54MOL    H5917125   8.318   4.405   3.755 -0.6706 -0.2801  0.1270
   54MOL    H6017126   8.288   4.044   3.898  0.0471 -0.9363  2.1963
   54MOL    H6117127   0.246   4.055   4.048  1.1492  1.3505 -1.2539
   54MOL    H6217128   0.272   4.303   4.008  0.8028 -0.0243  0.6994
   54MOL    H6317129   0.080   4.410   3.875 -0.4544 -0.4405 -0.9017
   54MOL    H6417130   8.134   4.165   3.774  1.2531 -0.6639  0.2144
   54MOL    H6517131   8.107   4.316   3.701  1.4707  1.2199 -1.7007
   54MOL    C6617132   8.248   4.197   3.587 -0.0665 -0.3889  0.7761
   54MOL    C6717133   8.352   4.083   3.597 -0.0176 -0.4010  0.8838
   54MOL    C6817134   8.316   3.953   3.640 -0.6422  0.1279 -0.6747
   54MOL    C6917135   8.413   3.851   3.649  0.0479  0.7822 -0.1391
   54MOL   Cl7017136   8.363   3.709   3.734 -0.1383 -0.4181  0.3639
   54MOL    C7117137   0.113   3.872   3.605  0.9879 -0.3326  0.3925
   54MOL    C7217138   0.141   3.994   3.549  0.3460  0.0609 -0.3107
   54MOL    C7317139   0.047   4.099   3.547 -0.3467  0.6056  0.0501
   54MOL    C7417140   8.129   4.155   3.486 -0.5418  0.0929  0.8490
   54MOL    H7517141   8.295   4.283   3.540 -0.2223 -1.3854 -1.2572
   54MOL    H7617142   8.220   3.920   3.675 -0.5701 -1.4028 -1.8316
   54MOL    H7717143   0.192   3.800   3.616  0.0395 -1.3722  0.5193
   54MOL    H7817144   0.239   4.017   3.510  0.4531  0.7491  0.3539
   54MOL    H7917145   0.077   4.191   3.497  1.9820 -1.0809 -1.7853
   54MOL    H8017146   8.073   4.067   3.520 -0.8019 -0.2330 -0.3878
   54MOL    H8117147   8.050   4.230   3.486  0.0700  0.7375  0.5165
   54MOL    C8217148   8.167   4.135   3.329  0.6878 -0.2098 -0.4044
   54MOL    C8317149   8.229   4.001   3.296 -0.3019  0.4319  0.1563
   54MOL    C8417150   8.358   4.006   3.235 -0.2805 -0.4645 -0.0357
   54MOL    C8517151   8.428   3.887   3.211 -0.0998 -0.2757  0.0606
   54MOL   Cl8617152   0.160   3.896   3.152  0.0456 -0.0397  0.0694
   54MOL    C8717153   8.362   3.762   3.244  0.2986  0.1754  0.4915
   54MOL    C8817154   8.232   3.757   3.297 -0.6003  0.2778  0.6789
   54MOL    C8917155   8.167   3.881   3.330  0.0950 -0.2596  0.1560
   54MOL    C9017156   8.056   4.155   3.226  0.0267  0.3176  0.1469
   54MOL    H9117157   8.247   4.209   3.319  0.7564  0.0011  1.5368
   54MOL    H9217158   8.394   4.105   3.210 -0.4123 -0.2934  0.4545
   54MOL    H9317159   8.414   3.668   3.231  1.0249  0.5392  0.7401
   54MOL    H9417160   8.179   3.665   3.313 -1.9133  1.1355  1.3630
   54MOL    H9517161   8.073   3.874   3.382  0.3457 -1.0351  0.5244
   54MOL    H9617162   8.102   4.136   3.129  1.2253 -1.4100  1.0110
   54MOL    H9717163   7.970   4.088   3.226 -1.1198  1.7856 -0.1973
   54MOL    C9817164   7.996   4.295   3.207  0.6004  0.3554  0.0196
   54MOL    C9917165   8.106   4.402   3.217  0.6312 -0.6715 -0.4270
   54MOL   C10017166   8.091   4.501   3.318 -0.7515 -0.0317 -0.1219
   54MOL   C10117167   8.190   4.600   3.327 -0.0498  0.9116  0.1528
   54MOL  Cl10217168   8.166   4.721   3.448  0.1463  0.5205  0.0146
   54MOL   C10317169   8.298   4.608   3.232 -0.4737  0.4279  0.2416
   54MOL   C10417170   8.312   4.506   3.135  1.6965 -0.4949  0.7574
   54MOL   C10517171   8.213   4.406   3.125 -0.4833  0.5519  0.1052
   54MOL   C10617172   7.916   4.327   3.078 -0.8723  0.7714  0.0143
   54MOL   H10717173   7.926   4.300   3.290 -0.0676  2.3371 -0.6176
   54MOL   H10817174   8.008   4.504   3.387 -0.9047 -0.3231 -0.2964
   54MOL   H10917175   8.363   4.694   3.230 -0.7884  0.6595 -3.0954
   54MOL   H11017176   8.390   4.516   3.062  0.2678  0.3502 -0.6791
   54MOL   H11117177   8.232   4.339   3.042 -0.6341  0.9326 -0.2427
   54MOL   H11217178   7.949   4.426   3.047 -2.3957  1.4276  0.4360
   54MOL   H11317179   7.950   4.261   2.999  1.1704  2.0736 -0.2194
   54MOL   C11417180   7.760   4.323   3.085  0.7084 -0.4812  0.5071
   54MOL   C11517181   7.701   4.424   3.186  0.0694 -0.0626 -0.0990
   54MOL   C11617182   7.764   4.546   3.207  0.6684  0.4897 -0.2201
   54MOL   C11717183   7.706   4.647   3.293  0.4685  0.2263 -0.1959
   54MOL  Cl11817184   7.790   4.795   3.307  0.0983  0.2284 -0.0435
   54MOL   C11917185   7.590   4.616   3.361  0.5390 -0.1307 -0.1468
   54MOL   C12017186   7.535   4.483   3.348  0.8931 -0.0191  0.3779
   54MOL   C12117187   7.581   4.385   3.263  0.1730 -0.1475  0.0390
   54MOL   C12217188   7.687   4.345   2.949 -0.8219 -0.0780 -0.0168
   54MOL   H12317189   7.713   4.231   3.121 -0.5869  0.1503  0.4630
   54MOL   H12417190   7.842   4.574   3.139  0.6179  0.2104 -0.3978
   54MOL   H12517191   7.540   4.695   3.416  0.1814 -0.4228 -0.0478
   54MOL   H12617192   7.439   4.471   3.397  0.9136  0.0985  0.4481
   54MOL   H12717193   7.530   4.292   3.241 -1.7082  0.4153  1.8613
   54MOL   H12817194   7.580   4.359   2.964 -0.8136  0.2047 -0.2229
   54MOL   H12917195   7.732   4.421   2.885 -0.0082 -0.0456  0.5738
   54MOL   C13017196   7.706   4.227   2.844  0.3490  0.2925 -0.3086
   54MOL   C13117197   7.696   4.086   2.903  0.8597  0.9034 -0.3273
   54MOL   C13217198   7.811   4.009   2.922  0.2863  1.0180  0.1770
   54MOL   C13317199   7.800   3.885   2.985  0.1609  0.1468  0.4884
   54MOL  Cl13417200   7.943   3.787   3.002  0.4400  0.0597  0.5199
   54MOL   C13517201   7.680   3.837   3.039  0.5795  0.2519  0.6830
   54MOL   C13617202   7.571   3.924   3.029  0.2730  0.2079 -0.2355
   54MOL   C13717203   7.578   4.052   2.968  0.0714 -0.3811 -0.3794
   54MOL   C13817204   7.598   4.242   2.731  0.7824 -0.1392 -0.5924
   54MOL   H13917205   7.809   4.225   2.808 -0.2561  0.7473 -2.1532
   54MOL   H14017206   7.906   4.044   2.885  0.5896 -0.1029 -0.1024
   54MOL   H14117207   7.673   3.742   3.091  0.5425  0.0353  0.2924
   54MOL   H14217208   7.477   3.885   3.065  0.2944 -0.7610 -1.2171
   54MOL   H14317209   7.482   4.097   2.948  0.4872  0.0913 -1.3512
   54MOL   H14417210   7.497   4.229   2.771  2.0625 -2.5283  1.9984
   54MOL   H14517211   7.602   4.345   2.696 -1.3941  0.3435  0.4904
   54MOL   C14617212   7.610   4.146   2.614 -0.0277  0.5223  0.2209
   54MOL   C14717213   7.486   4.068   2.573  0.2074 -0.4344  0.1192
   54MOL   C14817214   7.383   4.128   2.500  0.0647 -0.1883  0.1160
   54MOL   C14917215   7.269   4.053   2.459  0.0066  0.3292 -1.2733
   54MOL  Cl15017216   7.143   4.124   2.371 -0.2063 -0.3097 -0.0608
   54MOL   C15117217   7.256   3.922   2.503  0.3423  0.4073  0.6342
   54MOL   C15217218   7.356   3.869   2.590  0.6905 -0.1028 -0.2567
   54MOL   C15317219   7.475   3.938   2.626  0.1685  0.1521  0.6303
   54MOL   C15417220   7.672   4.207   2.479 -0.1508  0.1436  0.1992
   54MOL   H15517221   7.681   4.068   2.643 -0.0552 -0.2618 -1.7135
   54MOL   H15617222   7.389   4.235   2.486  0.0595  0.0175  1.6189
   54MOL   H15717223   7.171   3.861   2.478 -0.2691  1.4748  0.1003
   54MOL   H15817224   7.334   3.774   2.637  0.2797  0.2384  0.2483
   54MOL   H15917225   7.553   3.896   2.688  0.3753  1.9788  1.6491
   54MOL   H16017226   7.684   4.123   2.411 -1.0938  0.0933  0.0899
   54MOL   H16117227   7.601   4.280   2.440  1.3113  0.7058 -1.4999
   54MOL   C16217228   7.806   4.280   2.494 -0.7515 -0.1149 -0.8540
   54MOL   C16317229   7.925   4.188   2.524 -0.6279  0.5616 -0.0671
   54MOL   C16417230   8.018   4.233   2.622  0.8087 -0.2051 -0.7603
   54MOL   C16517231   8.124   4.148   2.662  0.2464  0.4067  0.1394
   54MOL  Cl16617232   8.237   4.208   2.775  0.0404  0.1613  0.0754
   54MOL   C16717233   8.135   4.015   2.609 -0.8181  0.7312 -0.1563
   54MOL   C16817234   8.063   3.979   2.492 -0.0361  0.0431 -0.2884
   54MOL   C16917235   7.960   4.063   2.453  0.6143 -0.0478 -0.1424
   54MOL   C17017236   7.821   4.346   2.352 -0.0426  0.0249  0.3504
   54MOL   H17117237   7.803   4.366   2.562  1.2683  0.5629 -1.5966
   54MOL   H17217238   8.010   4.332   2.666 -1.2200 -1.7044  2.5033
   54MOL   H17317239   8.212   3.946   2.640 -1.1296  0.3928 -0.1281
   54MOL   H17417240   8.088   3.886   2.445 -0.6034 -0.9719  1.3639
   54MOL   H17517241   7.899   4.027   2.371 -1.3193 -0.5620  1.4738
   54MOL   H17617242   7.923   4.386   2.348  0.8776 -2.2864 -0.0998
   54MOL   H17717243   7.828   4.267   2.277 -1.7733 -0.4635  0.6981
   54MOL   C17817244   7.743   4.480   2.321 -0.1176  0.0139 -0.0745
   54MOL   C17917245   7.742   4.594   2.432  0.3327 -0.2131 -0.6851
   54MOL   C18017246   7.862   4.653   2.494  0.4338  0.3217 -0.5156
   54MOL   C18117247   7.848   4.759   2.584  0.3636  0.1357  0.5654
   54MOL  Cl18217248   7.980   4.830   2.665  0.2772  0.1463  0.2704
   54MOL   C18317249   7.718   4.819   2.605 -0.0552 -0.3366 -1.1133
   54MOL   C18417250   7.604   4.760   2.554  0.7223  0.1538  0.7534
   54MOL   C18517251   7.613   4.649   2.467  0.0553 -0.6034 -0.2647
   54MOL   C18617252   7.796   4.543   2.192 -0.1278 -0.1930  0.0490
   54MOL   H18717253   7.640   4.445   2.308  0.7949 -3.6070  1.8061
   54MOL   H18817254   7.960   4.614   2.472  0.0927 -0.8652  0.0079
   54MOL   H18917255   7.716   4.908   2.666 -1.0436  0.2735 -2.0082
   54MOL   H19017256   7.509   4.806   2.579  0.6299  0.7745 -0.6855
   54MOL   H19117257   7.522   4.602   2.430 -0.2676  1.0027 -1.5705
   54MOL   H19217258   7.750   4.642   2.185 -0.5123 -0.3058  0.8674
   54MOL   H19317259   7.903   4.560   2.203 -0.0957 -1.1411  1.2746
   54MOL   C19417260   7.758   4.469   2.064 -0.6714  0.0728 -0.1307
   54MOL   C19517261   7.610   4.468   2.043  0.4830 -0.1863 -0.3357
   54MOL   C19617262   7.552   4.361   1.966  0.1222 -0.8589  0.0858
   54MOL   C19717263   7.417   4.354   1.943  0.0791 -0.2621 -0.5563
   54MOL  Cl19817264   7.363   4.212   1.852  0.2726  0.0716  0.2152
   54MOL   C19917265   7.336   4.452   1.997  0.2380  0.1186  0.0681
   54MOL   C20017266   7.389   4.564   2.069  0.2048 -0.0319 -0.0235
   54MOL   C20117267   7.522   4.571   2.093 -0.1658  0.2605 -0.8689
   54MOL   C20217268   7.830   4.509   1.934 -0.0869  0.2872 -0.0756
   54MOL   H20317269   7.783   4.364   2.080  2.7567  0.4010 -2.6553
   54MOL   H20417270   7.615   4.288   1.918  1.7437 -0.2072  1.1886
   54MOL   H20517271   7.229   4.451   1.980 -0.1339  2.1856  2.0321
   54MOL   H20617272   7.329   4.645   2.110  2.3130  0.7228  1.6246
   54MOL   H20717273   7.555   4.653   2.154  1.7465 -0.1809 -1.2639
   54MOL   H20817274   7.777   4.479   1.843 -3.4519 -2.4849  2.6469
   54MOL   H20917275   7.828   4.618   1.939 -1.2960  0.3327 -1.2830
   54MOL   C21017276   7.970   4.454   1.921 -0.5418 -0.0165 -0.8794
   54MOL   C21117277   7.971   4.327   1.832 -0.5796 -0.1945  0.5233
   54MOL   C21217278   7.988   4.336   1.697 -1.0752  0.2481  0.4147
   54MOL   C21317279   7.972   4.221   1.612  0.8387 -0.1147 -0.2749
   54MOL  Cl21417280   7.980   4.269   1.448  0.4298  0.0000  0.1105
   54MOL   C21517281   7.952   4.092   1.665  0.4310  0.4243 -0.2659
   54MOL   C21617282   7.938   4.081   1.800 -0.1430  0.3430  0.9310
   54MOL   C21717283   7.946   4.198   1.883 -0.2875 -0.1978  1.2975
   54MOL   C21817284   8.080   4.554   1.891 -0.1050 -0.1899 -0.0649
   54MOL   H21917285   7.993   4.408   2.017 -0.4831  1.0734 -0.3691
   54MOL   H22017286   7.995   4.434   1.652 -2.1441 -0.3629 -1.1421
   54MOL   H22117287   7.945   4.005   1.601 -0.4770 -0.4020  0.9393
   54MOL   H22217288   7.905   3.981   1.826 -0.0861  0.0959  0.0966
   54MOL   H22317289   7.907   4.201   1.984 -0.4481  3.0607  1.1802
   54MOL   H22417290   8.159   4.500   1.840 -1.0465 -1.1090 -0.5847
   54MOL   H22517291   8.047   4.620   1.811  0.1302 -1.5518 -1.3179
   54MOL   C22617292   8.134   4.635   2.011 -0.1134 -0.1941  0.5643
   54MOL   C22717293   8.193   4.552   2.128  0.7292 -0.8528 -0.0076
   54MOL   C22817294   8.266   4.434   2.100 -0.1983 -0.0877  0.5749
   54MOL   C22917295   8.296   4.352   2.204  0.2167 -0.0353 -0.2414
   54MOL  Cl23017296   8.366   4.197   2.168 -0.3978  0.3797 -0.1731
   54MOL   C23117297   8.271   4.389   2.342  0.3910  0.2026  0.2786
   54MOL   C23217298   8.207   4.510   2.368  0.3695  0.3471  0.1122
   54MOL   C23317299   8.169   4.597   2.264  0.4651 -0.7455 -0.1698
   54MOL   C23417300   8.199   4.770   1.992 -0.1898 -0.4259 -0.2984
   54MOL   H23517301   8.039   4.659   2.059 -1.5856 -1.4996 -1.6099
   54MOL   H23617302   8.289   4.412   1.997  2.2982  2.2352  0.5897
   54MOL   H23717303   8.303   4.324   2.422  1.3939 -0.9602 -1.0417
   54MOL   H23817304   8.190   4.542   2.470 -2.8257  0.6510 -0.4388
   54MOL   H23917305   8.121   4.692   2.281 -1.4680 -1.7453  0.0771
   54MOL   H24017306   8.140   4.822   1.916  0.6116 -0.3039 -0.8387
   54MOL   H24117307   8.198   4.815   2.091  0.5957 -1.0546 -0.0044
   54MOL   C24217308   8.341   4.762   1.936  0.7691 -0.2939 -0.3987
   54MOL   C24317309   8.359   4.703   1.796  0.1883 -0.0812  0.4898
   54MOL   C24417310   8.413   4.574   1.776 -0.3974 -0.6435  0.1237
   54MOL   C24517311   8.432   4.524   1.644 -0.2941  0.6397 -0.3026
   54MOL  Cl24617312   0.041   4.362   1.631 -0.2731 -0.0566 -0.0289
   54MOL   C24717313   8.402   4.609   1.535  0.3024 -0.1332 -0.3545
   54MOL   C24817314   8.356   4.743   1.554  0.6321  0.0021  0.4227
   54MOL   C24917315   8.324   4.786   1.682 -0.1767 -0.0389  0.0111
   54MOL   C25017316   8.415   4.895   1.953  0.2808 -0.7697  0.0283
   54MOL   H25117317   8.384   4.691   2.007  0.2778  0.2377  0.4401
   54MOL   H25217318   8.429   4.505   1.857  0.7626 -0.4755  0.0542
   54MOL   H25317319   8.392   4.571   1.435 -1.5251 -0.8920  0.0773
   54MOL   H25417320   8.335   4.803   1.467 -1.3318  1.3121  1.7825
   54MOL   H25517321   8.285   4.885   1.699  1.7005  0.4456  1.7274
   54MOL   H25617322   8.352   4.983   1.937 -0.8293 -0.9685  2.9803
   54MOL   H25717323   8.421   4.916   2.060  0.9896 -0.1639 -0.1294
   54MOL   C25817324   0.117   4.923   1.892  0.0151  0.3601  0.3630
   54MOL   C25917325   0.159   5.068   1.896 -0.0101 -0.4106 -0.0651
   54MOL   C26017326   0.103   5.161   1.987  1.1057  0.1974  0.1795
   54MOL   C26117327   0.146   5.295   1.993  0.5937 -0.4328  0.1936
   54MOL  Cl26217328   0.106   5.407   2.124  0.3030 -0.1392 -0.3132
   54MOL   C26317329   0.254   5.336   1.912  0.6443  0.0070  0.2437
   54MOL   C26417330   0.326   5.241   1.837  0.0398 -0.9358  0.4840
   54MOL   C26517331   0.267   5.108   1.822 -0.3860  0.2748  0.5251
   54MOL   C26617332   0.228   4.838   1.960  0.2092  0.0493 -0.5276
   54MOL   H26717333   0.115   4.890   1.788 -0.2298 -0.7939  0.7211
   54MOL   H26817334   0.016   5.138   2.047  0.3445  0.4135 -0.8306
   54MOL   H26917335   0.293   5.436   1.919 -2.6130  1.4015 -0.8236
   54MOL   H27017336   0.415   5.273   1.785 -1.1846 -1.2103 -1.8743
   54MOL   H27117337   0.304   5.029   1.759 -3.5305 -0.6053 -0.3305
   54MOL   H27217338   0.195   4.735   1.946 -3.0993  1.0639 -0.6679
   54MOL   H27317339   0.310   4.843   1.889  0.3768 -1.0629 -0.4289
   54MOL   C27417340   0.274   4.871   2.108 -0.3115  0.0233 -0.1741
   54MOL   C27517341   0.182   4.816   2.213  0.0756 -0.2464  0.4430
   54MOL   C27617342   0.107   4.908   2.298  0.1809  0.4835  0.0146
   54MOL   C27717343   0.021   4.858   2.397 -0.5366 -0.3475 -0.5534
   54MOL  Cl27817344   8.349   4.959   2.491  0.1967 -0.4607 -0.2588
   54MOL   C27917345   0.017   4.719   2.424  0.2003 -0.4310  0.0721
   54MOL   C28017346   0.090   4.624   2.345  0.4610 -0.0968  0.4924
   54MOL   C28117347   0.162   4.677   2.241 -1.0738  0.4425 -0.3011
   54MOL   C28217348   0.419   4.824   2.134 -0.1002 -0.1960 -0.1741
   54MOL   H28317349   0.269   4.979   2.124 -2.4970 -0.0181 -0.4842
   54MOL   H28417350   0.104   5.014   2.280 -1.4296  0.4729  0.1409
   54MOL   H28517351   8.396   4.678   2.507  0.7739  2.0768  1.7551
   54MOL   H28617352   0.085   4.519   2.370 -0.6127 -0.3421 -0.7207
   54MOL   H28717353   0.207   4.606   2.173  1.7062  1.7217  0.1446
   54MOL   H28817354   0.413   4.716   2.146  0.6674 -0.0103  1.9826
   54MOL   H28917355   0.485   4.845   2.050  0.5538  1.1025  0.6558
   54MOL   C29017356   0.502   4.878   2.259 -0.3683 -0.2329 -0.8765
   54MOL   C29117357   0.503   5.034   2.254 -0.2779  0.3465  0.1456
   54MOL   C29217358   0.598   5.098   2.160  0.1261 -0.2047  0.5202
   54MOL   C29317359   0.588   5.235   2.130  0.0804 -0.5786 -0.7073
   54MOL  Cl29417360   0.679   5.313   2.015 -0.3897  0.0181 -0.0670
   54MOL   C29517361   0.482   5.303   2.192 -0.9549 -1.1403  0.2244
   54MOL   C29617362   0.402   5.247   2.290 -0.2160  0.2848  0.2870
   54MOL   C29717363   0.415   5.113   2.321  0.6005 -0.6024  0.2202
   54MOL   C29817364   0.454   4.817   2.393  0.1334 -0.0846 -0.1561
   54MOL   H29917365   0.602   4.838   2.246 -0.1194 -0.1058  0.5225
   54MOL   H30017366   0.672   5.033   2.117 -0.7733 -0.4924 -0.6135
   54MOL   H30117367   0.463   5.407   2.167  2.0617 -0.6043 -0.0924
   54MOL   H30217368   0.322   5.295   2.343 -1.5299 -2.9186  1.3618
   54MOL   H30317369   0.342   5.087   2.396 -0.1309 -0.5106 -0.4628
   54MOL   H30417370   0.524   4.859   2.466  1.5676  0.1988 -1.6658
   54MOL   H30517371   0.352   4.840   2.424  0.0469 -2.0010  1.0364
   54MOL   C30617372   0.486   4.665   2.419  0.4112  0.8155 -0.0880
   54MOL   C30717373   0.634   4.628   2.405 -0.1049 -0.3250 -0.1617
   54MOL   C30817374   0.733   4.668   2.491 -0.3835  0.1600 -0.1908
   54MOL   C30917375   0.869   4.626   2.471  1.1118 -1.0536  0.1536
   54MOL  Cl31017376   0.994   4.676   2.574 -0.2299 -0.2645 -0.0363
   54MOL   C31117377   0.897   4.530   2.373 -0.0578 -0.2799 -0.0939
   54MOL   C31217378   0.798   4.488   2.291 -0.0780 -0.2457 -1.2454
   54MOL   C31317379   0.663   4.546   2.295  0.1681 -0.1456  0.3990
   54MOL   C31417380   0.419   4.623   2.553  0.3019 -0.0819 -0.3840
   54MOL   H31517381   0.435   4.600   2.348 -0.1376 -0.6648  1.6008
   54MOL   H31617382   0.707   4.742   2.565 -1.2672 -1.1268  0.8031
   54MOL   H31717383   0.997   4.491   2.367  0.3771  0.6210  1.0344
   54MOL   H31817384   0.813   4.417   2.210 -1.4010 -1.6792 -0.2751
   54MOL   H31917385   0.599   4.536   2.209  1.1860  0.8472 -0.4889
   54MOL   H32017386   0.311   4.633   2.556  0.4397  1.6668 -0.6275
   54MOL   H32117387   0.452   4.529   2.597  2.0108  1.3514  1.4765
   54MOL   H32217388   0.446   4.697   2.629 -3.6342 -0.8700  1.9128
   55MOL     C117389   1.875   7.203   1.863  0.4354 -0.4549  0.6465
   55MOL     C217390   1.907   7.350   1.901  0.4452 -0.0868  0.2312
   55MOL     C317391   2.042   7.398   1.878  0.3303  0.3521 -0.0012
   55MOL     C417392   2.079   7.534   1.908 -0.5082 -0.6346  0.2320
   55MOL    Cl517393   2.246   7.574   1.919  0.4826  0.2725 -0.3623
   55MOL     C617394   1.986   7.621   1.965  0.4830  0.5773 -0.4746
   55MOL     C717395   1.852   7.574   1.990 -0.1604 -0.1730  0.4747
   55MOL     C817396   1.813   7.441   1.962  0.1096  0.7815  0.5279
   55MOL     C917397   1.986   7.100   1.874 -0.8165 -0.0883 -0.2118
   55MOL    H1017398   1.836   7.211   1.762  0.4749  1.6387  0.7802
   55MOL    H1117399   2.128   7.343   1.843  0.3531 -0.5260  1.4207
   55MOL    H1217400   2.011   7.720   2.001  1.1022  0.1353  0.3477
   55MOL    H1317401   1.785   7.639   2.044 -1.7195 -0.5067 -1.0064
   55MOL    H1417402   1.712   7.408   1.981  0.5465 -0.4601  0.7385
   55MOL    H1517403   2.059   7.131   1.799  1.0608 -0.2516  1.4922
   55MOL    H1617404   2.028   7.097   1.975 -0.3608  1.1290 -0.3591
   55MOL    H1717405   1.788   7.172   1.921 -0.8145  0.1748 -0.8567
   55MOL    C1817406   1.940   6.961   1.840 -0.7746  0.5884 -0.2724
   55MOL    C1917407   2.062   6.870   1.813 -0.5790 -0.7231 -0.3761
   55MOL    C2017408   2.090   6.823   1.680  0.1000  0.4979  0.1868
   55MOL    C2117409   2.209   6.756   1.653 -0.1998  0.5216  0.2994
   55MOL   Cl2217410   2.238   6.693   1.494 -0.4126  0.4238 -0.2320
   55MOL    C2317411   2.295   6.722   1.762 -0.6201 -0.9773  0.5124
   55MOL    C2417412   2.257   6.763   1.895 -0.0341  0.7972 -0.7109
   55MOL    C2517413   2.149   6.849   1.916  0.3104 -0.7020 -0.4953
   55MOL    C2617414   1.843   6.900   1.943 -0.4822 -0.0610 -0.0601
   55MOL    H2717415   1.888   6.986   1.748 -0.1258  2.0697 -0.2665
   55MOL    H2817416   2.015   6.836   1.603  0.8377  0.8279 -0.4789
   55MOL    H2917417   2.382   6.658   1.754 -1.9803 -2.8178 -0.0095
   55MOL    H3017418   2.310   6.718   1.978 -1.7700  1.1689  0.6059
   55MOL    H3117419   2.127   6.873   2.019  0.7103 -1.7926 -0.1441
   55MOL    H3217420   1.914   6.883   2.024  0.7395 -1.2983 -1.3707
   55MOL    H3317421   1.761   6.967   1.970 -2.1479 -2.3675  0.7932
   55MOL    C3417422   1.771   6.769   1.915  0.4536 -0.2058 -0.5116
   55MOL    C3517423   1.870   6.652   1.916  0.2455  0.2788 -0.2053
   55MOL    C3617424   1.936   6.615   2.039 -0.7348 -0.0847  0.6038
   55MOL    C3717425   2.028   6.511   2.037  0.5066  0.1096 -0.1584
   55MOL   Cl3817426   2.117   6.476   2.175  0.0129  0.0101 -0.1457
   55MOL    C3917427   2.058   6.447   1.916  0.2031  0.8724 -0.2201
   55MOL    C4017428   1.984   6.480   1.798  0.0128  0.0054 -0.1894
   55MOL    C4117429   1.878   6.572   1.800 -0.2885 -0.8817 -0.3626
   55MOL    C4217430   1.643   6.743   1.995  0.4343  0.1942 -0.5606
   55MOL    H4317431   1.747   6.791   1.811 -0.5046 -0.6498 -0.3860
   55MOL    H4417432   1.910   6.671   2.127 -1.9646  2.4455 -1.2863
   55MOL    H4517433   2.123   6.361   1.914 -1.9209 -0.7935  0.0477
   55MOL    H4617434   2.007   6.427   1.707  0.2453  1.9733 -1.3226
   55MOL    H4717435   1.818   6.591   1.712 -0.1954 -2.5848 -0.8129
   55MOL    H4817436   1.660   6.749   2.103  0.1486  0.7327 -0.5446
   55MOL    H4917437   1.577   6.829   1.989 -1.6416 -1.3731 -0.6876
   55MOL    C5017438   1.582   6.596   1.984  0.5083  0.4970  0.2940
   55MOL    C5117439   1.476   6.585   2.087  0.0071  0.1647  0.0202
   55MOL    C5217440   1.361   6.675   2.089 -0.4289 -0.0133  0.1916
   55MOL    C5317441   1.261   6.662   2.185  0.1903  0.5652  0.0575
   55MOL   Cl5417442   1.144   6.792   2.192  0.0453 -0.2413 -0.0291
   55MOL    C5517443   1.273   6.562   2.285  0.2728 -0.0125 -0.0602
   55MOL    C5617444   1.379   6.464   2.276  0.5677 -0.4789 -0.2511
   55MOL    C5717445   1.478   6.477   2.181 -0.2014  0.3596 -0.6816
   55MOL    C5817446   1.518   6.580   1.842 -0.3256 -0.8935 -0.2596
   55MOL    H5917447   1.656   6.521   2.010  0.0744 -0.3473 -0.8635
   55MOL    H6017448   1.346   6.751   2.013  0.7162 -0.3375 -0.3661
   55MOL    H6117449   1.204   6.558   2.368  0.4297  0.3401  0.0890
   55MOL    H6217450   1.387   6.381   2.346  1.2785 -0.5101 -0.3640
   55MOL    H6317451   1.565   6.412   2.184 -0.3245  0.1743 -1.0395
   55MOL    H6417452   1.461   6.671   1.821  1.7150 -0.0469 -2.4450
   55MOL    H6517453   1.601   6.588   1.772  1.4894 -1.1632  1.8326
   55MOL    C6617454   1.439   6.448   1.808  0.2511  0.3619  0.1000
   55MOL    C6717455   1.330   6.500   1.713  0.0037  0.9943 -0.7380
   55MOL    C6817456   1.214   6.543   1.769  0.0509  0.0419 -0.8549
   55MOL    C6917457   1.115   6.599   1.687 -0.6439  0.4575  1.0924
   55MOL   Cl7017458   0.971   6.639   1.765 -0.4750 -0.5505  0.3266
   55MOL    C7117459   1.134   6.615   1.547 -0.0161  0.2878 -0.2715
   55MOL    C7217460   1.250   6.566   1.487  0.6498 -0.0503  0.1495
   55MOL    C7317461   1.347   6.503   1.570  0.6796 -0.2786  0.2933
   55MOL    C7417462   1.528   6.334   1.765  0.7270  0.1437 -0.2240
   55MOL    H7517463   1.390   6.413   1.898 -0.8415  0.6153 -0.3878
   55MOL    H7617464   1.187   6.534   1.874 -0.6498  0.6659 -0.9749
   55MOL    H7717465   1.060   6.661   1.484  0.6001  2.1726  0.3683
   55MOL    H7817466   1.277   6.574   1.383 -0.3601  1.4412 -0.0053
   55MOL    H7917467   1.435   6.461   1.523  2.0576  1.0684  1.6256
   55MOL    H8017468   1.601   6.380   1.698  0.8190  1.4231  0.7350
   55MOL    H8117469   1.590   6.282   1.838  1.8627  2.9891  0.9313
   55MOL    C8217470   1.452   6.227   1.683  0.1727  0.0688 -0.0097
   55MOL    C8317471   1.554   6.172   1.577  0.8064  0.0953 -0.0589
   55MOL    C8417472   1.517   6.178   1.436  0.2613 -0.5192 -1.3322
   55MOL    C8517473   1.612   6.151   1.338 -0.4551  0.5059 -0.1015
   55MOL   Cl8617474   1.563   6.142   1.165  0.4015  0.2357 -0.3580
   55MOL    C8717475   1.745   6.133   1.373 -0.2761  0.2542 -0.3091
   55MOL    C8817476   1.786   6.138   1.509 -0.7512  0.3991  0.5154
   55MOL    C8917477   1.691   6.153   1.609  0.1788  0.3111 -0.0163
   55MOL    C9017478   1.411   6.106   1.762  0.0270  0.1825  0.0807
   55MOL    H9117479   1.365   6.265   1.629  0.1337  0.1765  0.1274
   55MOL    H9217480   1.416   6.207   1.411 -0.4968 -2.6931 -0.9470
   55MOL    H9317481   1.818   6.108   1.297 -1.2121 -1.4240 -0.6832
   55MOL    H9417482   1.891   6.123   1.529 -0.7649 -0.9275 -0.2880
   55MOL    H9517483   1.724   6.159   1.712  0.2418 -3.1779  0.2268
   55MOL    H9617484   1.376   6.028   1.694 -0.5979 -0.4223  1.0967
   55MOL    H9717485   1.503   6.058   1.797  0.1186  1.1864  1.2449
   55MOL    C9817486   1.313   6.119   1.877  0.3675 -0.4250  0.0179
   55MOL    C9917487   1.175   6.172   1.830 -0.1113 -0.1528 -0.3612
   55MOL   C10017488   1.112   6.112   1.721 -0.3114  0.5300  0.2780
   55MOL   C10117489   0.980   6.142   1.685  0.4232 -0.9280  0.1061
   55MOL  Cl10217490   0.908   6.084   1.542 -0.0020  0.2880 -0.4650
   55MOL   C10317491   0.918   6.247   1.762  0.5771  0.5392 -0.8951
   55MOL   C10417492   0.979   6.301   1.879  1.0725 -0.3745  0.0457
   55MOL   C10517493   1.108   6.269   1.910 -0.1312  0.5203  0.0160
   55MOL   C10617494   1.294   5.974   1.933  0.4780 -0.2000  0.1092
   55MOL   H10717495   1.372   6.173   1.951 -0.2419  0.3336 -0.0454
   55MOL   H10817496   1.167   6.034   1.669 -0.0691 -1.3365  3.1988
   55MOL   H10917497   0.823   6.283   1.723 -0.5332  0.0596  1.2932
   55MOL   H11017498   0.932   6.379   1.937  2.1051 -0.1511  0.5959
   55MOL   H11117499   1.156   6.316   1.994  1.9147 -0.3782 -0.6057
   55MOL   H11217500   1.201   5.981   1.989  0.2749  2.0498 -0.4650
   55MOL   H11317501   1.272   5.902   1.854  1.2638  0.9016 -1.1380
   55MOL   C11417502   1.391   5.909   2.028  1.5391 -0.1660 -0.3827
   55MOL   C11517503   1.451   5.994   2.137  0.2075 -0.3519  0.8333
   55MOL   C11617504   1.582   6.047   2.126 -0.0383  0.1116 -1.1528
   55MOL   C11717505   1.635   6.132   2.229  0.1344 -0.0973 -0.0560
   55MOL  Cl11817506   1.786   6.211   2.203 -0.0829 -0.4296 -0.0115
   55MOL   C11917507   1.563   6.155   2.346  0.1140  0.1194  0.0762
   55MOL   C12017508   1.432   6.104   2.360 -0.0313 -0.0375 -0.3343
   55MOL   C12117509   1.378   6.031   2.250  0.2991 -0.6516 -0.0169
   55MOL   C12217510   1.336   5.775   2.080  0.4945 -0.2296 -0.1533
   55MOL   H12317511   1.471   5.871   1.964  0.4786 -0.3655 -1.6254
   55MOL   H12417512   1.644   6.042   2.038 -2.7537  0.3416 -3.1368
   55MOL   H12517513   1.611   6.217   2.420 -0.3389 -0.8306  1.1693
   55MOL   H12617514   1.378   6.124   2.451  0.7002  0.0980  0.0747
   55MOL   H12717515   1.280   5.988   2.267  0.9362 -2.6488 -1.2348
   55MOL   H12817516   1.425   5.738   2.132 -0.2373 -0.3310  1.0398
   55MOL   H12917517   1.253   5.777   2.150  0.7651 -1.5426  0.2223
   55MOL   C13017518   1.309   5.656   1.982 -0.8159 -0.1061  0.6817
   55MOL   C13117519   1.417   5.640   1.874 -0.0299 -0.1646 -0.2059
   55MOL   C13217520   1.404   5.698   1.742 -0.7528  1.0616  0.0301
   55MOL   C13317521   1.505   5.688   1.644 -0.8135  0.3790 -0.4774
   55MOL  Cl13417522   1.478   5.763   1.494 -0.2994  0.0200  0.1604
   55MOL   C13517523   1.624   5.620   1.679 -0.4223 -0.2270  0.2439
   55MOL   C13617524   1.643   5.567   1.809 -0.3019 -0.2696 -0.2313
   55MOL   C13717525   1.542   5.578   1.906  0.3434  0.1596 -0.0727
   55MOL   C13817526   1.275   5.520   2.045  0.1520 -0.1376 -0.5559
   55MOL   H13917527   1.219   5.686   1.928 -0.7161  0.0259  0.5871
   55MOL   H14017528   1.308   5.738   1.713  0.3828  1.8431 -2.7698
   55MOL   H14117529   1.709   5.616   1.613  0.4746 -0.7390  1.4002
   55MOL   H14217530   1.732   5.515   1.841  0.0334  0.3153 -0.2025
   55MOL   H14317531   1.553   5.530   2.003 -0.2183  0.0185 -0.0810
   55MOL   H14417532   1.276   5.449   1.963 -0.4763  1.5614 -2.0826
   55MOL   H14517533   1.365   5.501   2.104 -1.0592 -3.2864  0.3330
   55MOL   C14617534   1.144   5.521   2.131  0.3429 -0.2945  0.5333
   55MOL   C14717535   1.026   5.562   2.038 -0.2584  0.0488 -0.0128
   55MOL   C14817536   0.985   5.487   1.923 -0.0810 -0.3542  0.5012
   55MOL   C14917537   0.875   5.517   1.837  0.1548 -0.6101 -0.0044
   55MOL  Cl15017538   0.832   5.416   1.710 -0.1855 -0.4715  0.5588
   55MOL   C15117539   0.817   5.639   1.861  0.0877 -0.0512  0.6373
   55MOL   C15217540   0.862   5.724   1.961 -0.3843  0.1996 -0.1796
   55MOL   C15317541   0.964   5.685   2.053  0.1285 -0.4846 -0.3309
   55MOL   C15417542   1.116   5.383   2.198 -0.3091 -0.3218  0.2210
   55MOL   H15517543   1.163   5.591   2.212 -1.4947  0.9971 -0.1021
   55MOL   H15617544   1.031   5.394   1.892 -0.9753 -0.7403  0.3380
   55MOL   H15717545   0.746   5.678   1.790 -0.5481  1.4307  2.0591
   55MOL   H15817546   0.807   5.816   1.978 -0.7711 -0.2321  0.9611
   55MOL   H15917547   0.983   5.739   2.144 -0.8091 -1.0653  0.2175
   55MOL   H16017548   1.033   5.329   2.154 -0.6269  0.1744  0.2072
   55MOL   H16117549   1.206   5.323   2.184 -1.1334 -1.3371 -0.7501
   55MOL   C16217550   1.093   5.385   2.347 -0.2639 -0.1594  0.4965
   55MOL   C16317551   0.946   5.421   2.381  0.1531 -0.2396  0.1996
   55MOL   C16417552   0.896   5.551   2.364  0.6223  0.0985  0.7893
   55MOL   C16517553   0.758   5.578   2.358  0.2530 -0.1157 -0.0906
   55MOL  Cl16617554   0.705   5.723   2.286  0.0089  0.2102  0.1863
   55MOL   C16717555   0.672   5.478   2.401  0.0339  0.0315 -0.7116
   55MOL   C16817556   0.714   5.350   2.432  0.1564 -0.1618  0.1515
   55MOL   C16917557   0.854   5.317   2.422 -0.0998 -0.2116  0.5875
   55MOL   C17017558   1.140   5.265   2.440  0.0851 -0.0433 -0.0376
   55MOL   H17117559   1.145   5.476   2.376 -0.6092  0.8914 -2.0856
   55MOL   H17217560   0.964   5.616   2.312  1.2124 -0.2258  1.1495
   55MOL   H17317561   0.564   5.488   2.403  0.0161  0.2341 -1.8358
   55MOL   H17417562   0.640   5.273   2.444  0.3718 -0.0918  2.0589
   55MOL   H17517563   0.878   5.214   2.443  0.3511  0.1714  2.0200
   55MOL   H17617564   1.106   5.284   2.542  1.5261 -1.1102  0.6582
   55MOL   H17717565   1.091   5.173   2.409  1.9420 -0.8969 -0.4939
   55MOL   C17817566   1.293   5.244   2.449 -0.1886 -0.4729  0.2769
   55MOL   C17917567   1.369   5.376   2.474  0.8903  0.1717 -0.2858
   55MOL   C18017568   1.353   5.447   2.590 -0.1992 -1.1902 -0.2012
   55MOL   C18117569   1.410   5.577   2.606 -0.1171 -0.0901  0.4855
   55MOL  Cl18217570   1.367   5.662   2.748 -0.2897  0.0486  0.0712
   55MOL   C18317571   1.492   5.633   2.506 -1.3666  0.6763  0.6256
   55MOL   C18417572   1.508   5.562   2.385  0.0577  1.0185 -0.0408
   55MOL   C18517573   1.453   5.433   2.379  0.0661 -0.8089 -0.0783
   55MOL   C18617574   1.324   5.129   2.551 -0.0412  0.5383 -0.6980
   55MOL   H18717575   1.323   5.209   2.351  1.4967  2.1243 -0.2013
   55MOL   H18817576   1.280   5.415   2.663 -0.9872  1.2539  0.1368
   55MOL   H18917577   1.544   5.727   2.514 -0.1352  0.0994 -0.4318
   55MOL   H19017578   1.567   5.611   2.309 -0.2498  2.3334  0.5583
   55MOL   H19117579   1.475   5.377   2.289  0.0064  1.2463 -1.4023
   55MOL   H19217580   1.324   5.177   2.649 -1.3063  1.3755 -1.1003
   55MOL   H19317581   1.234   5.067   2.555  0.4276 -0.1954 -1.4096
   55MOL   C19417582   1.442   5.042   2.529 -0.3170  0.0244 -0.0745
   55MOL   C19517583   1.565   5.123   2.488  1.0616  0.4679  0.4256
   55MOL   C19617584   1.624   5.206   2.582 -0.5339 -0.2174 -0.9820
   55MOL   C19717585   1.738   5.287   2.548 -0.7449 -0.6971 -0.0657
   55MOL  Cl19817586   1.807   5.394   2.665 -0.3096  0.0718 -0.7863
   55MOL   C19917587   1.787   5.279   2.416 -0.4910  0.2197  0.6515
   55MOL   C20017588   1.717   5.202   2.320 -0.4173 -0.0103  0.3843
   55MOL   C20117589   1.613   5.122   2.355  0.0953 -0.2666 -0.3502
   55MOL   C20217590   1.470   4.942   2.641 -0.0175 -0.3682  0.3796
   55MOL   H20317591   1.425   4.979   2.442  0.3458 -1.2258  0.6982
   55MOL   H20417592   1.585   5.211   2.683 -0.9515 -2.1418 -1.0303
   55MOL   H20517593   1.880   5.328   2.392  0.3814 -2.5964 -1.9532
   55MOL   H20617594   1.754   5.186   2.220 -0.1459 -0.9093  0.6325
   55MOL   H20717595   1.559   5.072   2.276 -1.4561  1.7853 -0.6464
   55MOL   H20817596   1.562   4.890   2.615 -0.3698  0.4703 -2.8204
   55MOL   H20917597   1.488   5.004   2.728 -1.0887  0.6644 -0.1183
   55MOL   C21017598   1.358   4.836   2.666  0.1037  0.2708  0.5615
   55MOL   C21117599   1.340   4.741   2.546  0.0732  0.0977  0.2241
   55MOL   C21217600   1.402   4.612   2.537 -0.0904 -0.3950 -1.1068
   55MOL   C21317601   1.385   4.535   2.421  0.3333  0.1349  0.0207
   55MOL  Cl21417602   1.463   4.379   2.424  0.0035  0.4185 -0.1007
   55MOL   C21517603   1.304   4.587   2.317  0.1120 -0.1527 -0.8351
   55MOL   C21617604   1.243   4.709   2.320 -0.2403  0.2696 -0.0617
   55MOL   C21717605   1.261   4.784   2.441  0.5853  1.2473  0.1686
   55MOL   C21817606   1.393   4.767   2.799 -0.4013 -0.0551  0.1920
   55MOL   H21917607   1.263   4.884   2.689 -1.2277 -1.6413 -0.7182
   55MOL   H22017608   1.478   4.586   2.609  1.4233  1.7519 -1.8699
   55MOL   H22117609   1.285   4.521   2.234 -0.7939 -1.4125  0.3507
   55MOL   H22217610   1.181   4.736   2.236 -1.6968  4.1742  2.1493
   55MOL   H22317611   1.221   4.883   2.438 -1.2949  0.5298  1.2544
   55MOL   H22417612   1.490   4.717   2.794  0.3147  1.3178  0.1884
   55MOL   H22517613   1.404   4.843   2.876 -1.2661  0.9347 -0.6461
   55MOL   C22617614   1.285   4.670   2.857 -0.6171  0.8286 -0.0843
   55MOL   C22717615   1.348   4.580   2.969  0.2084  0.6875  0.4831
   55MOL   C22817616   1.434   4.639   3.063 -0.3128  0.7619 -0.3780
   55MOL   C22917617   1.471   4.559   3.172 -0.0261 -0.7506  0.2573
   55MOL  Cl23017618   1.566   4.630   3.299  0.0794 -0.2313  0.4908
   55MOL   C23117619   1.426   4.431   3.181 -0.1298  0.2878 -0.0749
   55MOL   C23217620   1.347   4.370   3.080  0.4098  0.0913  0.5241
   55MOL   C23317621   1.297   4.447   2.971  0.0616 -0.3919 -0.0498
   55MOL   C23417622   1.146   4.713   2.892 -0.3150 -0.2070  0.4955
   55MOL   H23517623   1.271   4.598   2.776 -0.3507  1.3817 -0.6212
   55MOL   H23617624   1.460   4.744   3.068 -0.5894  0.8405 -0.6121
   55MOL   H23717625   1.436   4.373   3.271 -2.2967 -2.1826 -1.3605
   55MOL   H23817626   1.307   4.270   3.088 -2.0032  0.8731 -1.0762
   55MOL   H23917627   1.229   4.418   2.893  2.2961 -3.1506 -1.0644
   55MOL   H24017628   1.109   4.766   2.804  2.3495 -2.0285 -1.8075
   55MOL   H24117629   1.081   4.626   2.885 -0.9424  0.2053  1.1712
   55MOL   C24217630   1.127   4.798   3.015  0.0060  0.5465 -0.6409
   55MOL   C24317631   1.185   4.939   3.010  0.9065  0.1708 -0.6875
   55MOL   C24417632   1.123   5.034   2.929 -0.3068 -0.0921 -0.3981
   55MOL   C24517633   1.170   5.171   2.925 -0.3117  0.7451 -0.0005
   55MOL  Cl24617634   1.090   5.282   2.824 -0.1368  0.2584  0.0689
   55MOL   C24717635   1.276   5.204   3.014  0.1290  0.2603 -0.5600
   55MOL   C24817636   1.337   5.116   3.097 -0.6414 -0.1770 -0.1562
   55MOL   C24917637   1.289   4.982   3.100  0.0064  0.4442 -0.1431
   55MOL   C25017638   0.983   4.787   3.056  0.2305  0.3190  0.0140
   55MOL   H25117639   1.184   4.739   3.088  1.0405  2.8793  0.4922
   55MOL   H25217640   1.027   5.009   2.887 -0.8364  1.7954 -0.3315
   55MOL   H25317641   1.312   5.305   3.022  2.7096 -0.6029 -0.7567
   55MOL   H25417642   1.405   5.155   3.172 -1.8393 -2.4631  2.1717
   55MOL   H25517643   1.329   4.922   3.180  0.2355  1.5719  0.6056
   55MOL   H25617644   0.946   4.882   3.095 -0.6985 -0.0532  0.0514
   55MOL   H25717645   0.929   4.788   2.962  0.3122  2.5817 -0.0363
   55MOL   C25817646   0.937   4.660   3.134  0.1496 -0.1114  0.2824
   55MOL   C25917647   0.985   4.672   3.279  0.5211  0.6959  0.0381
   55MOL   C26017648   1.079   4.585   3.329  0.6223 -0.3225 -0.0855
   55MOL   C26117649   1.118   4.594   3.466 -0.2711  0.4028  0.1668
   55MOL  Cl26217650   1.243   4.493   3.530  0.0380 -0.5158  0.3986
   55MOL   C26317651   1.056   4.683   3.553 -0.1454  0.0320  0.9810
   55MOL   C26417652   0.960   4.772   3.505  0.4722 -0.1367 -0.6122
   55MOL   C26517653   0.926   4.764   3.366  0.7288  0.4220  0.3892
   55MOL   C26617654   0.787   4.632   3.129  0.4497 -0.3924 -0.4606
   55MOL   H26717655   0.996   4.574   3.102  2.7121  2.7692 -3.1498
   55MOL   H26817656   1.122   4.513   3.261 -0.7045 -1.8321  0.6439
   55MOL   H26917657   1.085   4.684   3.657 -3.5344  2.3524  2.0031
   55MOL   H27017658   0.918   4.852   3.565 -2.0151 -1.5690 -0.3752
   55MOL   H27117659   0.843   4.826   3.334  0.7503 -0.4776 -1.4880
   55MOL   H27217660   0.764   4.557   3.205 -0.6794 -0.9659 -1.3561
   55MOL   H27317661   0.740   4.720   3.173 -0.4302  0.9355 -3.9253
   55MOL   C27417662   0.736   4.584   2.991 -0.2638 -0.3214 -0.2098
   55MOL   C27517663   0.792   4.446   2.955 -0.0042  0.1862  0.8448
   55MOL   C27617664   0.845   4.437   2.824  0.0922  0.2944 -0.7226
   55MOL   C27717665   0.907   4.316   2.781 -0.6480 -0.2348 -0.3170
   55MOL  Cl27817666   0.973   4.307   2.623 -0.1800  0.5117 -0.1556
   55MOL   C27917667   0.907   4.204   2.866 -0.6214 -0.0690 -0.3816
   55MOL   C28017668   0.852   4.215   2.998 -0.2556  0.6474  0.1301
   55MOL   C28117669   0.795   4.337   3.043  0.2228 -0.0997  0.2390
   55MOL   C28217670   0.583   4.588   2.980  0.0250  0.3324 -0.1909
   55MOL   H28317671   0.766   4.653   2.912 -0.0548 -0.5148 -0.3020
   55MOL   H28417672   0.859   4.524   2.762  2.2675  0.6723  0.2187
   55MOL   H28517673   0.958   4.112   2.841 -2.1136 -0.7833 -0.8442
   55MOL   H28617674   0.846   4.129   3.063 -2.2651  0.1389 -0.6774
   55MOL   H28717675   0.747   4.329   3.139  1.8636 -1.0006  1.0068
   55MOL   H28817676   0.575   4.560   2.875  2.3009 -0.0242 -0.2868
   55MOL   H28917677   0.540   4.514   3.048  0.6982 -0.6499 -0.8283
   55MOL   C29017678   0.511   4.728   3.007 -0.5880 -0.8459  0.5132
   55MOL   C29117679   0.591   4.854   2.966 -0.2731  0.1206  0.3366
   55MOL   C29217680   0.648   4.864   2.839  0.2051 -0.2048 -0.5456
   55MOL   C29317681   0.711   4.980   2.789 -0.2511 -0.2062 -0.0670
   55MOL  Cl29417682   0.784   4.981   2.637 -0.1738 -0.0353 -0.0234
   55MOL   C29517683   0.712   5.098   2.873  0.3374  0.0631 -0.7017
   55MOL   C29617684   0.651   5.088   2.998 -0.1476  0.0394  0.0169
   55MOL   C29717685   0.596   4.965   3.047  0.2281 -0.2577 -0.5047
   55MOL   C29817686   0.367   4.723   2.960  0.4237 -0.3166 -0.2299
   55MOL   H29917687   0.499   4.741   3.115 -0.3078 -2.2777  0.7342
   55MOL   H30017688   0.658   4.782   2.770  1.8034 -1.1420  0.7525
   55MOL   H30117689   0.765   5.187   2.841 -0.1077  0.5848  0.0119
   55MOL   H30217690   0.638   5.176   3.059 -2.2479  0.2521 -0.6941
   55MOL   H30317691   0.559   4.971   3.148  0.3199  5.5263 -0.6414
   55MOL   H30417692   0.376   4.752   2.855  1.1314  1.8988  0.3955
   55MOL   H30517693   0.340   4.621   2.985 -0.1343  0.0025  0.5037
   55MOL   C30617694   0.259   4.816   3.020  1.1553 -1.2894 -0.3305
   55MOL   C30717695   0.116   4.801   2.959 -0.8003 -0.5343 -0.0653
   55MOL   C30817696   0.085   4.688   2.878  0.0748 -0.0288 -0.3215
   55MOL   C30917697   8.385   4.681   2.829  0.7673 -0.2334  0.1826
   55MOL  Cl31017698   8.331   4.540   2.740 -0.0619  0.1659 -0.2211
   55MOL   C31117699   8.294   4.787   2.855  0.6447 -0.0732  0.4882
   55MOL   C31217700   8.334   4.904   2.919 -0.0283 -0.0041  0.2478
   55MOL   C31317701   0.028   4.911   2.970  0.0487  0.3625 -0.4977
   55MOL   C31417702   0.257   4.801   3.172 -0.0854 -0.1032  0.2818
   55MOL   H31517703   0.287   4.919   3.000 -4.1726  0.2756 -0.5171
   55MOL   H31617704   0.158   4.610   2.864 -0.5810 -0.7491  0.2620
   55MOL   H31717705   8.193   4.773   2.819  1.5387  0.8069 -2.5431
   55MOL   H31817706   8.265   4.987   2.930 -2.3795 -1.6807 -1.3230
   55MOL   H31917707   0.058   5.003   3.018 -0.3712 -1.2291  2.9459
   55MOL   H32017708   0.341   4.853   3.219 -1.0195  1.5554  0.1504
   55MOL   H32117709   0.161   4.835   3.209  0.0050  0.4423  0.0273
   55MOL   H32217710   0.268   4.696   3.198  0.7322 -0.3343 -0.9850
   56MOL     C117711   0.506   3.005   7.640  0.1193 -1.0528 -0.3550
   56MOL     C217712   0.360   3.037   7.596  0.3671 -0.4305 -0.3209
   56MOL     C317713   0.272   3.079   7.695  0.6014 -0.3052 -0.3212
   56MOL     C417714   0.134   3.099   7.666 -0.2601  0.2121 -0.6394
   56MOL    Cl517715   0.007   3.128   7.789  0.0146 -0.0319 -0.0753
   56MOL     C617716   0.095   3.079   7.534 -0.3102  0.1815 -0.6154
   56MOL     C717717   0.185   3.056   7.433  0.1122 -0.5893 -0.2586
   56MOL     C817718   0.316   3.016   7.463 -0.2677  0.7863  0.7398
   56MOL     C917719   0.512   2.855   7.675  0.3952  0.5824 -0.1412
   56MOL    H1017720   0.522   3.063   7.731 -1.8945 -2.0123  0.6400
   56MOL    H1117721   0.302   3.084   7.798 -1.0403  1.3159  0.1062
   56MOL    H1217722   8.433   3.122   7.512  1.2635  3.0307 -2.2493
   56MOL    H1317723   0.162   3.040   7.328 -1.5627 -0.3055  0.0528
   56MOL    H1417724   0.390   2.984   7.392 -1.2850  1.9014 -0.8594
   56MOL    H1517725   0.457   2.843   7.768 -2.0359 -0.6597 -1.6756
   56MOL    H1617726   0.454   2.802   7.599  0.8268 -1.7241  1.1043
   56MOL    H1717727   0.572   3.041   7.560  0.6964  0.6217  0.8567
   56MOL    C1817728   0.654   2.794   7.703 -0.3751 -0.5114  0.0646
   56MOL    C1917729   0.740   2.876   7.804 -0.5626  0.0666  0.1794
   56MOL    C2017730   0.714   2.873   7.944 -0.3472 -0.4988  0.2126
   56MOL    C2117731   0.800   2.928   8.043 -0.0774  0.4776 -0.7635
   56MOL   Cl2217732   0.763   2.907   8.216  0.2330 -0.0354 -0.0864
   56MOL    C2317733   0.904   3.014   7.994 -0.3245  0.6834 -0.2358
   56MOL    C2417734   0.930   3.028   7.853 -0.7689  0.0827 -0.6239
   56MOL    C2517735   0.850   2.957   7.762  0.5169  0.0151  0.4782
   56MOL    C2617736   0.652   2.648   7.738  0.6486 -0.2830  0.1253
   56MOL    H2717737   0.705   2.806   7.607 -0.4602  1.0654  0.2019
   56MOL    H2817738   0.630   2.821   7.988  1.2926 -2.4331  1.0798
   56MOL    H2917739   0.974   3.061   8.062 -0.3356  0.9989 -0.4419
   56MOL    H3017740   1.017   3.086   7.827  0.3699 -0.2257  2.2941
   56MOL    H3117741   0.880   2.956   7.659  0.3268 -0.4708  0.4267
   56MOL    H3217742   0.755   2.621   7.763  1.2507  1.5725 -0.2366
   56MOL    H3317743   0.580   2.632   7.818  0.2271 -1.7438 -0.5184
   56MOL    C3417744   0.605   2.553   7.622 -0.1899 -0.5497  0.4718
   56MOL    C3517745   0.677   2.586   7.488 -0.3149 -0.7163 -0.8472
   56MOL    C3617746   0.817   2.590   7.483  0.5441  0.3340  0.2244
   56MOL    C3717747   0.885   2.643   7.372  0.2343  0.6743 -0.5172
   56MOL   Cl3817748   1.061   2.665   7.389 -0.0766  0.4472 -0.1163
   56MOL    C3917749   0.818   2.680   7.254  0.1597  0.1358 -0.0925
   56MOL    C4017750   0.677   2.671   7.254 -1.0586 -0.2778 -0.5441
   56MOL    C4117751   0.608   2.623   7.371 -0.4037 -0.2694  0.0648
   56MOL    C4217752   0.599   2.398   7.659 -0.8925 -0.3507 -0.1982
   56MOL    H4317753   0.499   2.571   7.604 -0.2236 -1.5896 -0.4396
   56MOL    H4417754   0.873   2.564   7.571  0.6290 -0.6887 -0.1224
   56MOL    H4517755   0.872   2.700   7.162 -0.1670  0.4618 -0.2149
   56MOL    H4617756   0.619   2.683   7.163 -1.2274 -2.1600 -0.7077
   56MOL    H4717757   0.502   2.601   7.365 -0.6113  0.5387  0.7046
   56MOL    H4817758   0.506   2.366   7.705  0.6706 -1.7111  2.1156
   56MOL    H4917759   0.591   2.361   7.556 -0.0702  1.8167 -1.0673
   56MOL    C5017760   0.713   2.329   7.744  0.4804 -0.5667 -1.0587
   56MOL    C5117761   0.710   2.358   7.902  1.0062  0.3666 -0.4555
   56MOL    C5217762   0.815   2.431   7.969 -0.7263  0.6012  0.0501
   56MOL    C5317763   0.799   2.462   8.103 -0.5697  0.1914  0.0939
   56MOL   Cl5417764   0.918   2.553   8.184 -0.0902 -0.5665 -0.6740
   56MOL    C5517765   0.678   2.433   8.167 -0.1293  0.0488 -0.6658
   56MOL    C5617766   0.576   2.365   8.106 -0.4772  0.0938 -0.4695
   56MOL    C5717767   0.591   2.330   7.974  0.5017 -0.0723  0.0786
   56MOL    C5817768   0.718   2.178   7.717 -0.4682 -0.4665 -0.1874
   56MOL    H5917769   0.806   2.368   7.703 -0.2795 -0.1991 -2.4668
   56MOL    H6017770   0.907   2.470   7.928 -0.5794  1.4457  1.1546
   56MOL    H6117771   0.686   2.458   8.272 -1.8229 -0.3271 -0.4414
   56MOL    H6217772   0.484   2.353   8.162  0.1673  0.4745  0.6773
   56MOL    H6317773   0.509   2.289   7.917  0.7710  0.4571 -0.6984
   56MOL    H6417774   0.615   2.142   7.715 -0.7262  0.3076 -2.1696
   56MOL    H6517775   0.761   2.176   7.616  1.1207  1.7427  0.3978
   56MOL    C6617776   0.800   2.081   7.808  0.2411  0.5938 -0.4290
   56MOL    C6717777   0.772   1.939   7.753 -0.0521  0.1878  0.1378
   56MOL    C6817778   0.721   1.841   7.844  0.5711 -0.2851 -0.1226
   56MOL    C6917779   0.700   1.709   7.802 -0.7651  0.1940 -0.1536
   56MOL   Cl7017780   0.647   1.595   7.923  0.1159 -0.3577 -0.0047
   56MOL    C7117781   0.743   1.665   7.671 -0.5822  0.3201  0.2050
   56MOL    C7217782   0.797   1.758   7.582 -0.1279 -0.5631  0.2693
   56MOL    C7317783   0.803   1.896   7.622  0.6481 -0.1690 -0.5955
   56MOL    C7417784   0.948   2.116   7.803  0.1723  0.0954  0.2237
   56MOL    H7517785   0.766   2.096   7.910 -0.6342  0.0860 -0.6408
   56MOL    H7617786   0.697   1.869   7.946 -2.5054  1.7915 -1.3606
   56MOL    H7717787   0.723   1.561   7.649 -2.9432  0.5162  1.3330
   56MOL    H7817788   0.822   1.734   7.480 -1.4229  0.7318 -0.3643
   56MOL    H7917789   0.844   1.967   7.552 -0.2054 -0.0281 -0.9673
   56MOL    H8017790   0.991   2.116   7.703  2.0854  0.1255  1.0310
   56MOL    H8117791   0.939   2.219   7.835  1.5318  1.3418 -3.1957
   56MOL    C8217792   1.048   2.046   7.897  0.6372 -0.4767 -0.0813
   56MOL    C8317793   1.003   2.028   8.046 -1.1345 -0.1725 -0.6649
   56MOL    C8417794   1.021   2.135   8.136  0.1957 -0.4561  0.0822
   56MOL    C8517795   0.986   2.120   8.272 -0.4833 -0.2113  0.0491
   56MOL   Cl8617796   1.007   2.253   8.378  0.2628 -0.1437  0.2368
   56MOL    C8717797   0.942   1.995   8.321  0.3258 -0.5612  0.1366
   56MOL    C8817798   0.933   1.883   8.231  1.0311  0.4688 -0.4237
   56MOL    C8917799   0.960   1.901   8.091 -0.0906 -0.4366 -0.0144
   56MOL    C9017800   1.088   1.915   7.826  0.1134  0.1606  0.4763
   56MOL    H9117801   1.130   2.117   7.890  0.3807 -0.1973 -0.2643
   56MOL    H9217802   1.061   2.228   8.096  0.0973  0.3382  1.7993
   56MOL    H9317803   0.918   1.986   8.426 -2.6721 -0.9827 -0.5509
   56MOL    H9417804   0.898   1.790   8.273  0.5105  0.4870 -0.8035
   56MOL    H9517805   0.933   1.818   8.028 -2.5638 -0.7383  1.3796
   56MOL    H9617806   1.005   1.846   7.812 -0.7753  0.9419  1.7795
   56MOL    H9717807   1.115   1.930   7.721 -0.4701  1.4014  0.4929
   56MOL    C9817808   1.209   1.833   7.886  0.7211 -0.0909  0.5331
   56MOL    C9917809   1.169   1.692   7.928  0.1596  0.5114  0.0090
   56MOL   C10017810   1.093   1.603   7.849  0.2211 -0.1039 -0.1673
   56MOL   C10117811   1.061   1.469   7.891  0.2515 -0.4913  0.1176
   56MOL  Cl10217812   0.976   1.368   7.775  0.1294 -0.1748 -0.2212
   56MOL   C10317813   1.100   1.420   8.015  0.2197  0.0520 -1.0538
   56MOL   C10417814   1.174   1.506   8.098  0.3269  0.2458 -0.2080
   56MOL   C10517815   1.212   1.637   8.049 -0.2325 -0.3055  0.1698
   56MOL   C10617816   1.327   1.829   7.791 -0.3637 -0.2441  0.4269
   56MOL   H10717817   1.247   1.884   7.974  1.5327  0.2517 -0.0144
   56MOL   H10817818   1.054   1.628   7.752  0.7061  0.2861 -0.2654
   56MOL   H10917819   1.091   1.316   8.043  1.6458 -0.3140 -1.9164
   56MOL   H11017820   1.216   1.469   8.190 -0.9608 -0.6002  0.0522
   56MOL   H11117821   1.267   1.706   8.113 -1.3021 -1.6350  2.5869
   56MOL   H11217822   1.395   1.759   7.839 -1.6274  0.3043  3.1063
   56MOL   H11317823   1.307   1.776   7.698 -0.0911  1.1224 -0.4234
   56MOL   C11417824   1.395   1.969   7.770  0.6990 -0.8096 -0.3025
   56MOL   C11517825   1.456   2.035   7.891  0.0723  0.5756  0.2422
   56MOL   C11617826   1.443   2.169   7.907  0.9189  0.3083  0.5883
   56MOL   C11717827   1.506   2.238   8.009 -0.2916 -0.3337  0.0695
   56MOL  Cl11817828   1.518   2.410   8.009  0.5175 -0.0954 -0.1033
   56MOL   C11917829   1.574   2.171   8.108  0.1096  0.3823  0.4450
   56MOL   C12017830   1.599   2.031   8.088 -0.1500  0.4178  0.1272
   56MOL   C12117831   1.536   1.965   7.979  0.6907  0.6070  0.2473
   56MOL   C12217832   1.496   1.961   7.651 -0.1397 -0.1801 -0.0992
   56MOL   H12317833   1.312   2.036   7.749  0.6034 -0.1450  2.0086
   56MOL   H12417834   1.392   2.235   7.839 -0.1513  0.0464  1.1324
   56MOL   H12517835   1.620   2.220   8.192 -0.0993 -1.1534  1.4864
   56MOL   H12617836   1.656   1.980   8.163 -0.2208 -2.7456 -1.8702
   56MOL   H12717837   1.552   1.861   7.957 -2.0301 -0.1985  1.8511
   56MOL   H12817838   1.571   2.039   7.652  0.3090 -0.5774 -1.6297
   56MOL   H12917839   1.560   1.874   7.666 -0.0456 -0.0923  0.0124
   56MOL   C13017840   1.415   1.964   7.518  0.6534 -0.4731  0.6742
   56MOL   C13117841   1.360   2.099   7.492  0.4367  0.3125 -0.2775
   56MOL   C13217842   1.458   2.203   7.480  0.5763  0.1232  0.0054
   56MOL   C13317843   1.416   2.332   7.462 -0.6575 -0.3587 -0.2066
   56MOL  Cl13417844   1.533   2.461   7.466  0.2471  0.0465  0.0317
   56MOL   C13517845   1.278   2.365   7.460 -0.3862 -0.5138 -0.7393
   56MOL   C13617846   1.182   2.265   7.488  0.4217  0.0455  0.1069
   56MOL   C13717847   1.219   2.134   7.509 -0.1692  0.4177  0.0304
   56MOL   C13817848   1.488   1.915   7.397  0.6121  0.1676 -0.3509
   56MOL   H13917849   1.325   1.904   7.535 -0.4640  0.8168 -0.4831
   56MOL   H14017850   1.561   2.173   7.489  0.2734 -1.1068 -0.6051
   56MOL   H14117851   1.249   2.468   7.443  1.0624  0.1643  0.7770
   56MOL   H14217852   1.078   2.292   7.503  0.2802  0.4101 -1.4291
   56MOL   H14317853   1.142   2.064   7.536 -1.2408  0.8271 -1.8569
   56MOL   H14417854   1.431   1.956   7.313  0.5714  0.0926 -0.3601
   56MOL   H14517855   1.585   1.960   7.378  0.4712  1.5485  2.0143
   56MOL   C14617856   1.506   1.763   7.381  0.8951  0.7867 -0.5213
   56MOL   C14717857   1.360   1.705   7.364 -0.2710 -0.5409  0.8362
   56MOL   C14817858   1.269   1.746   7.267 -0.0258 -0.0540 -0.4258
   56MOL   C14917859   1.136   1.701   7.265  0.4392  0.6939  0.1057
   56MOL  Cl15017860   1.014   1.755   7.151  0.1115 -0.1441  0.3063
   56MOL   C15117861   1.094   1.606   7.353 -0.1369  0.0828 -0.3357
   56MOL   C15217862   1.184   1.564   7.456  0.1867 -0.5645  0.1310
   56MOL   C15317863   1.315   1.616   7.469  0.7857 -0.7764  0.1358
   56MOL   C15417864   1.595   1.720   7.265 -0.3873 -0.0701 -0.4510
   56MOL   H15517865   1.541   1.728   7.478  0.5099 -1.7658 -1.2550
   56MOL   H15617866   1.299   1.823   7.197  1.7427 -2.3077 -2.1894
   56MOL   H15717867   0.996   1.560   7.357  0.1416 -0.4452  0.9161
   56MOL   H15817868   1.146   1.491   7.527 -0.9840  2.2217  2.4777
   56MOL   H15917869   1.385   1.589   7.547  0.0133 -0.9504  0.7646
   56MOL   H16017870   1.552   1.636   7.210  1.1029 -0.9945 -0.2188
   56MOL   H16117871   1.601   1.796   7.187 -0.6974 -1.1959 -1.5916
   56MOL   C16217872   1.735   1.692   7.313  0.1085  0.0838  0.8082
   56MOL   C16317873   1.821   1.811   7.351 -0.1877 -0.1701 -0.2207
   56MOL   C16417874   1.919   1.863   7.265  0.4845  0.5437  0.0834
   56MOL   C16517875   2.007   1.967   7.309  0.2772  0.4918  0.5007
   56MOL  Cl16617876   2.122   2.034   7.207  0.3192  0.0542 -0.0555
   56MOL   C16717877   2.004   2.014   7.439 -0.1310 -0.1200  0.2253
   56MOL   C16817878   1.906   1.965   7.526  0.0250 -0.1537 -0.5956
   56MOL   C16917879   1.814   1.871   7.480 -0.3207  0.2086 -0.7113
   56MOL   C17017880   1.743   1.571   7.410 -0.5669  0.1593  0.3137
   56MOL   H17117881   1.786   1.658   7.223 -2.3046  0.6349 -0.7841
   56MOL   H17217882   1.926   1.830   7.163 -0.1393  2.8041 -0.7289
   56MOL   H17317883   2.071   2.087   7.481 -2.4346  0.9054  2.2505
   56MOL   H17417884   1.917   2.002   7.627  0.0048  0.6980 -0.8993
   56MOL   H17517885   1.743   1.828   7.548  0.5641 -0.6225 -0.2966
   56MOL   H17617886   1.737   1.621   7.507 -0.7965  1.0843 -0.1648
   56MOL   H17717887   1.652   1.512   7.402 -0.5725  0.2355 -0.2142
   56MOL   C17817888   1.866   1.475   7.391  0.1512 -0.1443  0.0311
   56MOL   C17917889   1.946   1.476   7.523 -0.4523  0.2494 -0.1836
   56MOL   C18017890   1.936   1.378   7.618  0.7112 -0.0843  0.3660
   56MOL   C18117891   1.993   1.390   7.745  0.0769 -0.6520  0.2177
   56MOL  Cl18217892   1.971   1.258   7.858 -0.1387 -0.0296  0.2197
   56MOL   C18317893   2.081   1.496   7.776 -0.2758 -0.3281  0.0517
   56MOL   C18417894   2.089   1.602   7.681 -0.1601 -0.0802  0.5865
   56MOL   C18517895   2.025   1.591   7.555  0.9141 -0.5010  0.4196
   56MOL   C18617896   1.823   1.334   7.331 -0.5237 -0.2791  0.3537
   56MOL   H18717897   1.929   1.526   7.318  1.0213  0.6075  1.2956
   56MOL   H18817898   1.855   1.306   7.609  1.7141 -1.2423  0.4449
   56MOL   H18917899   2.136   1.495   7.869 -1.1468  3.7149  0.6970
   56MOL   H19017900   2.148   1.692   7.688  0.9327 -0.7592  0.2642
   56MOL   H19117901   2.028   1.667   7.478  1.8024  1.1325  2.0239
   56MOL   H19217902   1.751   1.290   7.400  1.1164 -0.5455  1.9362
   56MOL   H19317903   1.761   1.361   7.246  0.4132 -0.3087 -0.3522
   56MOL   C19417904   1.937   1.232   7.300  0.0029  0.5809  0.2429
   56MOL   C19517905   1.877   1.102   7.259 -0.3536  0.7866  0.6426
   56MOL   C19617906   1.901   0.981   7.331 -0.4426  0.4652  0.2724
   56MOL   C19717907   1.836   0.856   7.289 -0.0337 -1.6559  1.0174
   56MOL  Cl19817908   1.861   0.716   7.384  0.1723  0.1839  0.1152
   56MOL   C19917909   1.752   0.860   7.173  0.1665  0.4700  0.2825
   56MOL   C20017910   1.738   0.978   7.101  1.2382 -0.2477  0.5799
   56MOL   C20117911   1.797   1.102   7.138  0.6847 -0.4640 -0.0349
   56MOL   C20217912   2.041   1.290   7.203 -0.8316  0.3589 -0.0568
   56MOL   H20317913   1.989   1.214   7.394 -0.2301 -2.2827 -0.1262
   56MOL   H20417914   1.972   0.979   7.413 -1.1271 -0.0998  0.8537
   56MOL   H20517915   1.698   0.775   7.133 -0.4529  1.0156 -0.0547
   56MOL   H20617916   1.679   0.974   7.011  0.6638  0.1486  0.9399
   56MOL   H20717917   1.784   1.186   7.072  0.9905 -3.3032 -3.8932
   56MOL   H20817918   1.977   1.305   7.116 -1.1960 -1.3844 -0.0967
   56MOL   H20917919   2.080   1.387   7.234 -1.5226  1.2794 -2.0433
   56MOL   C21017920   2.151   1.195   7.161  0.1244 -0.0540 -0.1868
   56MOL   C21117921   2.182   1.221   7.017  0.0088  0.1754  0.3515
   56MOL   C21217922   2.176   1.108   6.930 -0.6498 -0.0427  0.3762
   56MOL   C21317923   2.223   1.118   6.795 -0.4932 -0.5153 -0.6490
   56MOL  Cl21417924   2.227   0.978   6.693  0.0138 -0.0928 -0.1336
   56MOL   C21517925   2.262   1.246   6.748 -0.8715 -0.6146 -0.4158
   56MOL   C21617926   2.268   1.355   6.838 -0.2597  0.2025  0.5569
   56MOL   C21717927   2.226   1.340   6.969 -0.2572 -0.3842  0.4339
   56MOL   C21817928   2.265   1.210   7.262  0.3972 -0.2809 -0.0557
   56MOL   H21917929   2.112   1.093   7.168 -0.0798  0.2220  3.8177
   56MOL   H22017930   2.145   1.015   6.974  2.5564 -1.6752 -0.6832
   56MOL   H22117931   2.308   1.268   6.653 -0.5323  0.3180 -0.0526
   56MOL   H22217932   2.312   1.450   6.813 -1.1531  0.5252  0.2140
   56MOL   H22317933   2.246   1.428   7.028  4.0691 -0.6841 -0.4362
   56MOL   H22417934   2.280   1.310   7.304  0.8802  0.6698 -2.4185
   56MOL   H22517935   2.230   1.151   7.347 -1.3369  1.3700  0.4366
   56MOL   C22617936   2.405   1.160   7.209  0.4047  0.1613  0.0072
   56MOL   C22717937   2.492   1.271   7.171  0.1047 -0.6208 -0.1541
   56MOL   C22817938   2.550   1.355   7.274  0.3955 -0.4316 -0.0285
   56MOL   C22917939   2.641   1.458   7.238  0.2369  0.4893 -0.0095
   56MOL  Cl23017940   2.728   1.542   7.367 -0.0577  0.0571  0.2300
   56MOL   C23117941   2.680   1.476   7.104  0.4785  0.2039  0.0653
   56MOL   C23217942   2.613   1.403   7.000 -0.4628  0.2724  0.0837
   56MOL   C23317943   2.527   1.294   7.036  0.4876 -0.0339  0.5359
   56MOL   C23417944   2.460   1.052   7.309 -0.0341 -0.4863  0.3271
   56MOL   H23517945   2.385   1.099   7.121 -3.8800 -0.5259  1.3759
   56MOL   H23617946   2.525   1.337   7.378 -0.4095 -0.9878 -0.3209
   56MOL   H23717947   2.753   1.553   7.083  0.1537  0.3289 -0.6247
   56MOL   H23817948   2.623   1.421   6.894  0.7203 -3.0787 -0.4223
   56MOL   H23917949   2.492   1.236   6.952  0.2809  0.9385 -0.0568
   56MOL   H24017950   2.461   1.081   7.414  2.2180 -3.0737  1.0828
   56MOL   H24117951   2.387   0.970   7.310  0.8692 -1.3026  0.1247
   56MOL   C24217952   2.599   0.988   7.276  0.6546 -0.3087 -0.0718
   56MOL   C24317953   2.655   0.894   7.379 -0.4309  0.7200  0.0915
   56MOL   C24417954   2.783   0.905   7.445 -0.4252 -1.1112 -0.0277
   56MOL   C24517955   2.833   0.816   7.540  1.3528  0.3783  0.1375
   56MOL  Cl24617956   2.986   0.853   7.617 -0.1965  0.2185  0.0455
   56MOL   C24717957   2.757   0.704   7.571 -0.0162 -0.2875  0.3975
   56MOL   C24817958   2.631   0.684   7.518  0.1791 -0.1620  0.4904
   56MOL   C24917959   2.576   0.783   7.428 -0.8661  0.3207 -0.5032
   56MOL   C25017960   2.603   0.915   7.137  0.4710 -0.5083 -0.3000
   56MOL   H25117961   2.670   1.071   7.267  2.4508 -1.6750  1.2144
   56MOL   H25217962   2.851   0.984   7.418 -1.8210  0.1745  0.1720
   56MOL   H25317963   2.805   0.623   7.624 -2.1737 -0.4674  2.1227
   56MOL   H25417964   2.568   0.600   7.545  1.3480 -1.6348 -1.2608
   56MOL   H25517965   2.482   0.759   7.381  0.1562 -0.4928 -2.1961
   56MOL   H25617966   2.547   0.822   7.138  1.8110 -1.3972 -2.8523
   56MOL   H25717967   2.542   0.971   7.066  0.4279  0.8417  0.7827
   56MOL   C25817968   2.749   0.897   7.079 -0.5142 -0.6526 -0.5590
   56MOL   C25917969   2.732   0.781   6.979 -0.1930  0.4170  0.7201
   56MOL   C26017970   2.800   0.667   7.003 -0.0390 -0.0823  0.0816
   56MOL   C26117971   2.785   0.550   6.923 -0.8416  0.3463 -0.3637
   56MOL  Cl26217972   2.886   0.417   6.958  0.4812  0.3018 -0.5423
   56MOL   C26317973   2.692   0.552   6.818  0.3433 -0.3677  0.6127
   56MOL   C26417974   2.617   0.672   6.794  0.7268  0.1593 -0.0260
   56MOL   C26517975   2.641   0.794   6.873 -0.2348  0.7072  0.5589
   56MOL   C26617976   2.806   1.021   7.002  0.4917  0.2831  0.6514
   56MOL   H26717977   2.816   0.873   7.162 -1.5264  0.1540  0.5000
   56MOL   H26817978   2.872   0.668   7.083  0.5372 -1.0014 -0.4129
   56MOL   H26917979   2.689   0.470   6.748 -0.2484 -0.5716  0.8724
   56MOL   H27017980   2.548   0.682   6.711 -0.6021  0.8429  1.1362
   56MOL   H27117981   2.580   0.881   6.853 -2.0032 -0.9654 -1.5747
   56MOL   H27217982   2.763   1.023   6.902  0.7777 -2.2388  0.4503
   56MOL   H27317983   2.771   1.112   7.052  3.2974  0.6103  2.1286
   56MOL   C27417984   2.960   1.029   6.993  0.8753  1.1353 -0.3824
   56MOL   C27517985   2.999   1.122   6.885 -0.3192 -0.6225  0.2571
   56MOL   C27617986   2.938   1.241   6.853  0.4610 -0.3724  0.0594
   56MOL   C27717987   2.980   1.320   6.742  0.0945 -0.0654 -0.2938
   56MOL  Cl27817988   2.889   1.456   6.688 -0.4169 -0.0232 -0.1898
   56MOL   C27917989   3.095   1.284   6.672 -0.1105  0.7012  0.0528
   56MOL   C28017990   3.170   1.170   6.717 -0.6048  0.2466 -0.3289
   56MOL   C28117991   3.120   1.094   6.822 -0.1963  0.1154 -0.1996
   56MOL   C28217992   3.026   1.078   7.122 -0.0693  1.1536 -0.1911
   56MOL   H28317993   2.989   0.928   6.964  0.6372  0.8576  0.3488
   56MOL   H28417994   2.851   1.263   6.914  1.1461  0.3011  0.7996
   56MOL   H28517995   3.132   1.339   6.587  0.6981  2.3766  1.4547
   56MOL   H28617996   3.269   1.146   6.681 -0.0411  0.9939  0.6624
   56MOL   H28717997   3.173   1.006   6.854 -0.0757  0.3776  0.3195
   56MOL   H28817998   3.064   1.180   7.115  0.4399  0.9642 -0.1574
   56MOL   H28917999   2.952   1.085   7.202 -0.1054 -0.2560 -0.0915
   56MOL   C29018000   3.150   0.988   7.164 -0.0201 -0.0858  0.3911
   56MOL   C29118001   3.243   1.067   7.257  0.1689  0.0839 -0.2906
   56MOL   C29218002   3.208   1.097   7.389 -0.2332  0.1244 -0.0744
   56MOL   C29318003   3.294   1.168   7.471 -0.2038  0.3318 -0.3237
   56MOL  Cl29418004   3.246   1.224   7.633 -0.0664 -0.2373  0.8596
   56MOL   C29518005   3.416   1.210   7.417  0.7292  0.2653 -0.3737
   56MOL   C29618006   3.456   1.175   7.281 -0.1366 -0.7395  1.0857
   56MOL   C29718007   3.367   1.100   7.202 -0.2850 -0.0864  0.3918
   56MOL   C29818008   3.125   0.847   7.223  0.1118  0.2895  0.0929
   56MOL   H29918009   3.188   0.975   7.063 -2.7713 -1.7928 -0.4724
   56MOL   H30018010   3.110   1.068   7.424 -0.3618 -0.0626 -0.5996
   56MOL   H30118011   3.478   1.276   7.476  1.3908  0.6184 -1.4547
   56MOL   H30218012   3.547   1.215   7.239  0.0015 -0.1900  1.8994
   56MOL   H30318013   3.392   1.067   7.102  2.8716 -0.9081  1.4095
   56MOL   H30418014   3.184   0.830   7.313  1.1842  1.1539 -0.4377
   56MOL   H30518015   3.029   0.843   7.275  0.5459  1.6578  1.0161
   56MOL   C30618016   3.160   0.728   7.133  0.0433 -0.3361 -0.4810
   56MOL   C30718017   3.307   0.737   7.093  0.3088  0.2784 -0.8061
   56MOL   C30818018   3.338   0.753   6.952  0.1689 -0.7897  0.1510
   56MOL   C30918019   3.480   0.775   6.920 -0.1881  0.0743 -0.5487
   56MOL  Cl31018020   3.517   0.792   6.756  0.3783  0.0715 -0.3114
   56MOL   C31118021   3.580   0.779   7.020  0.6688  0.2920  0.2603
   56MOL   C31218022   3.549   0.767   7.154 -0.0440  0.9299 -0.5591
   56MOL   C31318023   3.412   0.745   7.190 -0.0971 -0.3084  0.6409
   56MOL   C31418024   3.125   0.602   7.208  0.4583  0.2018  0.1144
   56MOL   H31518025   3.103   0.728   7.040  1.1981  0.8623 -1.2063
   56MOL   H31618026   3.253   0.774   6.888 -0.6893  0.6522  1.7091
   56MOL   H31718027   3.681   0.801   6.989  0.1025 -2.0302 -3.4311
   56MOL   H31818028   3.621   0.789   7.231  0.5315 -2.7156  0.0147
   56MOL   H31918029   3.387   0.756   7.294  3.5322  2.1902  1.3602
   56MOL   H32018030   3.023   0.592   7.244  0.4524  0.9302  0.3115
   56MOL   H32118031   3.139   0.513   7.148 -1.9251  1.3390 -2.2246
   56MOL   H32218032   3.181   0.602   7.301  1.3312 -0.0906 -0.4020
   57MOL     C118033   0.127   0.408   6.825 -0.1824  0.2078  0.7279
   57MOL     C218034   0.094   0.267   6.843  0.2758 -0.2090  0.0445
   57MOL     C318035   8.421   0.203   6.775  0.4158 -1.1242  0.0469
   57MOL     C418036   8.393   0.064   6.799 -0.1423 -0.0231  0.0441
   57MOL    Cl518037   8.268   8.411   6.729 -0.0495  0.4058  0.1093
   57MOL     C618038   0.037   8.429   6.893 -0.4755  0.0739 -0.0862
   57MOL     C718039   0.138   0.061   6.965 -0.3665 -0.4551  0.5864
   57MOL     C818040   0.166   0.193   6.939  0.5447 -0.3309 -0.7413
   57MOL     C918041   0.080   0.497   6.934 -0.5104 -0.4306 -0.3275
   57MOL    H1018042   0.079   0.435   6.731 -0.6794 -0.8844  0.6570
   57MOL    H1118043   8.354   0.245   6.701  1.2177 -0.2623 -0.1941
   57MOL    H1218044   0.013   8.328   6.925  1.0717 -0.0869  0.6284
   57MOL    H1318045   0.203   0.003   7.028  1.2193 -1.3929 -1.8230
   57MOL    H1418046   0.246   0.245   6.989 -1.3193  1.2874  0.6045
   57MOL    H1518047   0.144   0.475   7.020 -2.5064  0.1412  1.3655
   57MOL    H1618048   0.099   0.604   6.924 -0.5439 -0.4094 -0.1677
   57MOL    H1718049   0.233   0.412   6.799 -0.4093 -1.4092 -0.5392
   57MOL    C1818050   8.373   0.465   6.983 -0.3323 -0.2919 -0.5354
   57MOL    C1918051   8.359   0.503   7.136 -0.5549 -0.1179  0.4139
   57MOL    C2018052   8.322   0.636   7.173 -0.7294  0.7882  0.3919
   57MOL    C2118053   8.296   0.663   7.312 -0.4158 -0.5393  0.0883
   57MOL   Cl2218054   8.253   0.821   7.370  0.0544  0.0272 -0.3520
   57MOL    C2318055   8.320   0.559   7.408  0.3879  0.1330  0.2299
   57MOL    C2418056   8.345   0.426   7.371 -0.6721 -0.1031  0.5913
   57MOL    C2518057   8.368   0.398   7.237  0.2655  0.1985 -0.3123
   57MOL    C2618058   8.265   0.520   6.889  0.2144 -0.3011 -0.0940
   57MOL    H2718059   8.360   0.357   6.986 -1.7729 -0.1151  0.3544
   57MOL    H2818060   8.302   0.715   7.101 -0.4187  1.0038  0.5395
   57MOL    H2918061   8.308   0.576   7.514  0.7891  1.1362  0.1185
   57MOL    H3018062   8.364   0.351   7.446 -1.3132 -0.2926  0.5635
   57MOL    H3118063   8.405   0.297   7.228  0.9858  0.5069 -0.8505
   57MOL    H3218064   8.268   0.628   6.903  0.5640 -0.6077  2.3114
   57MOL    H3318065   8.279   0.492   6.785  1.9894 -1.9077  0.5537
   57MOL    C3418066   8.122   0.475   6.932  0.1356  0.1260  0.0345
   57MOL    C3518067   8.058   0.553   7.045  0.1126 -0.7863  0.2034
   57MOL    C3618068   8.037   0.695   7.029 -0.2630  0.0813 -0.0398
   57MOL    C3718069   7.984   0.765   7.135  0.4386  0.5879 -0.1699
   57MOL   Cl3818070   7.940   0.936   7.115 -0.0958 -0.2775  0.2183
   57MOL    C3918071   7.933   0.701   7.249  0.2028  0.2611 -0.5157
   57MOL    C4018072   7.954   0.563   7.266 -0.5812 -0.2417 -0.2756
   57MOL    C4118073   8.024   0.492   7.169  0.1575 -0.3008  0.5644
   57MOL    C4218074   8.034   0.466   6.807 -0.3734 -0.0636 -0.7279
   57MOL    H4318075   8.136   0.373   6.969 -1.1781  0.4191  1.3656
   57MOL    H4418076   8.047   0.746   6.934 -1.5195  0.3289 -0.0476
   57MOL    H4518077   7.902   0.763   7.331 -0.7787 -1.9024  0.7966
   57MOL    H4618078   7.940   0.520   7.364  1.6675  2.2108  1.2014
   57MOL    H4718079   8.051   0.387   7.171 -0.3796 -0.4450  0.2094
   57MOL    H4818080   8.040   0.559   6.750 -2.3187  0.1151 -0.6556
   57MOL    H4918081   8.080   0.389   6.744 -0.8758 -0.4164 -0.6677
   57MOL    C5018082   7.882   0.433   6.831 -1.0336  0.3717  0.3883
   57MOL    C5118083   7.807   0.564   6.855 -0.0922  0.1016  0.5163
   57MOL    C5218084   7.818   0.668   6.765  0.0988  0.0293  0.2572
   57MOL    C5318085   7.757   0.794   6.796 -0.0759 -0.1528  0.1178
   57MOL   Cl5418086   7.783   0.923   6.696  0.1082 -0.4070  0.1557
   57MOL    C5518087   7.674   0.807   6.904 -1.1282 -0.1743 -0.1395
   57MOL    C5618088   7.664   0.701   6.995  0.1401 -0.2737  0.0840
   57MOL    C5718089   7.724   0.573   6.968 -0.6726  0.0784  0.2605
   57MOL    C5818090   7.824   0.359   6.707 -1.1724 -0.3240 -0.1753
   57MOL    H5918091   7.871   0.365   6.915 -0.3011  0.6234  0.6898
   57MOL    H6018092   7.881   0.669   6.677 -0.2725  0.8186 -0.0013
   57MOL    H6118093   7.616   0.897   6.907 -1.2085 -0.1796 -1.2257
   57MOL    H6218094   7.597   0.718   7.078  2.6983 -0.2747  2.2130
   57MOL    H6318095   7.707   0.498   7.043  1.4189 -0.3739  0.3126
   57MOL    H6418096   7.716   0.363   6.723 -0.7091  2.0861  2.8701
   57MOL    H6518097   7.836   0.408   6.611  1.1528 -1.5600 -0.5567
   57MOL    C6618098   7.874   0.216   6.680 -0.0842  0.2402  0.8272
   57MOL    C6718099   7.870   0.119   6.798  0.3696  0.1869  0.2018
   57MOL    C6818100   7.986   0.109   6.883  0.3471  0.4014  0.0656
   57MOL    C6918101   7.989   0.018   6.989 -0.2828  0.0997  0.0178
   57MOL   Cl7018102   8.140   0.009   7.077 -0.1779 -0.0361  0.0293
   57MOL    C7118103   7.885   8.366   7.020  0.1760 -0.3044  0.1595
   57MOL    C7218104   7.774   8.369   6.932 -0.6165  0.3866  0.4872
   57MOL    C7318105   7.770   0.023   6.819  0.4825 -0.5070 -0.3650
   57MOL    C7418106   7.797   0.162   6.554  0.1866 -0.0605 -1.0062
   57MOL    H7518107   7.980   0.233   6.660  0.0579 -0.6066  0.8380
   57MOL    H7618108   8.076   0.166   6.866  1.6461 -2.0609 -1.6187
   57MOL    H7718109   7.888   8.300   7.106  1.0745  0.6295  0.8730
   57MOL    H7818110   7.695   8.301   6.958  0.8571 -2.3255 -1.8143
   57MOL    H7918111   7.678   0.016   6.762  0.0191 -1.9403  0.5223
   57MOL    H8018112   7.693   0.151   6.585  0.0600 -1.4865 -1.9134
   57MOL    H8118113   7.803   0.234   6.472  2.1855  1.6151  0.5644
   57MOL    C8218114   7.842   0.026   6.505  0.1270  0.2261 -0.2513
   57MOL    C8318115   7.731   8.396   6.427 -0.0231  0.2604 -0.7366
   57MOL    C8418116   7.707   0.001   6.291  0.6899  0.6460  0.7430
   57MOL    C8518117   7.599   8.390   6.225  0.6696  0.4135  0.2029
   57MOL   Cl8618118   7.561   0.015   6.068 -0.5575  0.1916  0.0497
   57MOL    C8718119   7.519   8.292   6.281 -0.0788 -0.1357  0.4803
   57MOL    C8818120   7.539   8.239   6.411  0.6096  0.2248  0.4229
   57MOL    C8918121   7.643   8.300   6.489 -0.2380 -1.1827  0.1702
   57MOL    C9018122   7.973   0.039   6.418 -0.0220 -0.7275 -0.4473
   57MOL    H9118123   7.852   8.384   6.582  2.4336 -0.5878 -1.3243
   57MOL    H9218124   7.764   0.075   6.237 -1.0189 -0.1689 -2.2897
   57MOL    H9318125   7.426   8.258   6.238 -1.0843 -2.2448  4.1458
   57MOL    H9418126   7.479   8.159   6.452 -0.5431  0.5523 -0.6053
   57MOL    H9518127   7.648   8.276   6.595 -0.1118 -0.1355  0.4114
   57MOL    H9618128   7.960   0.110   6.336  1.4152  0.9257  0.7063
   57MOL    H9718129   8.060   0.081   6.468  0.0427  1.5235 -2.3529
   57MOL    C9818130   8.019   8.338   6.355  0.5761  0.2646 -0.3983
   57MOL    C9918131   8.127   8.362   6.253 -0.4260  0.1452 -0.9201
   57MOL   C10018132   8.255   8.405   6.297 -1.3032  0.6169  0.4111
   57MOL   C10118133   8.358   8.426   6.205 -0.0327 -0.1347  0.0021
   57MOL  Cl10218134   0.074   0.045   6.256  0.1984  0.1087  0.1487
   57MOL   C10318135   8.338   8.391   6.071 -0.3205  0.0379  0.6132
   57MOL   C10418136   8.216   8.341   6.028  0.4728  0.3297 -0.2267
   57MOL   C10518137   8.110   8.329   6.120  0.1135  0.4658  0.1901
   57MOL   C10618138   8.058   8.240   6.469  0.7237 -0.1754  0.3402
   57MOL   H10718139   7.934   8.300   6.299 -0.3110  2.0043 -0.2784
   57MOL   H10818140   8.278   8.414   6.402  2.1449 -0.4062 -0.2311
   57MOL   H10918141   8.414   8.402   5.995 -0.7155 -1.9503 -0.1146
   57MOL   H11018142   8.203   8.321   5.923 -0.4126 -1.1129  0.1510
   57MOL   H11118143   8.010   8.300   6.090  0.5720 -1.1539  0.2306
   57MOL   H11218144   8.154   8.274   6.507  1.5393 -0.9072 -1.0130
   57MOL   H11318145   7.997   8.246   6.560  0.1486  0.2144 -0.0710
   57MOL   C11418146   8.071   8.092   6.425 -0.1060  0.2393  0.6676
   57MOL   C11518147   8.152   8.013   6.520  0.9396 -0.1798 -0.1701
   57MOL   C11618148   8.138   8.036   6.659 -0.7609 -0.5918 -0.0855
   57MOL   C11718149   8.232   7.977   6.750  0.2768 -0.4192  0.1048
   57MOL  Cl11818150   8.230   8.020   6.917 -0.0378  0.0646  0.2284
   57MOL   C11918151   8.313   7.868   6.709  0.3497  0.2537  0.0092
   57MOL   C12018152   8.316   7.838   6.569  0.7349  0.0310 -0.1033
   57MOL   C12118153   8.235   7.907   6.475 -0.2921 -0.4512  0.2525
   57MOL   C12218154   7.933   8.027   6.406  0.2363  0.4919  0.5977
   57MOL   H12318155   8.133   8.080   6.336  0.5374  1.0562  0.9896
   57MOL   H12418156   8.078   8.115   6.701  0.1382 -0.6338  1.3077
   57MOL   H12518157   8.363   7.808   6.783 -1.1967  1.6822  2.2619
   57MOL   H12618158   8.353   7.740   6.541  1.7194 -0.5283  2.9370
   57MOL   H12718159   8.235   7.880   6.370  1.4060 -0.1758  0.1726
   57MOL   H12818160   7.917   7.943   6.474 -1.9458 -0.4708 -1.0254
   57MOL   H12918161   7.856   8.100   6.427 -0.6133 -0.2248  0.0333
   57MOL   C13018162   7.910   7.991   6.259  0.1938  0.4859  0.2277
   57MOL   C13118163   7.976   7.858   6.217 -0.5124 -0.3612 -0.0552
   57MOL   C13218164   7.922   7.742   6.281 -0.3111 -0.6097  0.0073
   57MOL   C13318165   7.981   7.617   6.270 -0.6084  0.6929  0.1062
   57MOL  Cl13418166   7.916   7.475   6.337  0.5590  0.0959 -0.2500
   57MOL   C13518167   8.103   7.613   6.202  0.9935 -0.0419  0.4946
   57MOL   C13618168   8.154   7.718   6.126 -0.3027 -0.6347 -0.4615
   57MOL   C13718169   8.095   7.843   6.143 -0.4533 -0.5974  0.2825
   57MOL   C13818170   7.763   7.995   6.208 -0.5509 -0.3536 -0.1425
   57MOL   H13918171   7.957   8.066   6.196  2.5913 -0.0704  1.2956
   57MOL   H14018172   7.834   7.750   6.344 -0.4526  0.3791 -0.2974
   57MOL   H14118173   8.155   7.518   6.200 -0.0345 -0.6752  2.5999
   57MOL   H14218174   8.238   7.705   6.060 -2.4817  0.4712 -3.6037
   57MOL   H14318175   8.132   7.927   6.088  1.8156 -1.1710  0.8864
   57MOL   H14418176   7.708   7.918   6.262 -1.0724 -0.5850 -1.0049
   57MOL   H14518177   7.713   8.090   6.227 -0.1961 -0.1153 -0.3926
   57MOL   C14618178   7.746   7.955   6.058 -0.5279 -0.3524  0.2572
   57MOL   C14718179   7.595   7.958   6.023 -0.1709  0.7196  0.5213
   57MOL   C14818180   7.525   8.079   5.997 -0.2144  0.1970 -0.1191
   57MOL   C14918181   7.392   8.072   5.952 -0.8711 -0.0616  0.1221
   57MOL  Cl15018182   7.303   8.212   5.915 -0.1239 -0.1199  0.0802
   57MOL   C15118183   7.323   7.952   5.943 -0.1401  0.0803  0.1676
   57MOL   C15218184   7.393   7.836   5.985  0.0788 -0.0977 -0.2808
   57MOL   C15318185   7.526   7.832   6.026 -0.4907  0.6354 -0.3435
   57MOL   C15418186   7.824   8.045   5.960  0.7202 -1.0955 -0.5306
   57MOL   H15518187   7.776   7.855   6.028  0.3805  0.3921 -1.4380
   57MOL   H15618188   7.575   8.175   6.000  2.4958 -1.0949 -1.9317
   57MOL   H15718189   7.216   7.946   5.926  0.2135 -0.5558 -1.9925
   57MOL   H15818190   7.343   7.740   5.979  1.5917 -0.8465 -1.0864
   57MOL   H15918191   7.576   7.745   6.064 -2.1996  0.1480  0.8611
   57MOL   H16018192   7.805   8.149   5.985  3.0205 -0.2949 -1.8859
   57MOL   H16118193   7.933   8.034   5.965  0.7302 -1.0351 -0.6174
   57MOL   C16218194   7.790   8.036   5.807 -0.8796 -1.1108 -0.3302
   57MOL   C16318195   7.830   8.164   5.722  0.4229 -0.6028 -0.3991
   57MOL   C16418196   7.952   8.171   5.655  0.1943 -0.5555 -0.3509
   57MOL   C16518197   7.985   8.290   5.584 -0.1846 -0.0563  0.0736
   57MOL  Cl16618198   8.131   8.296   5.480 -0.0000 -0.1634  0.0402
   57MOL   C16718199   7.903   8.405   5.596  0.2392 -0.2155 -0.2110
   57MOL   C16818200   7.780   8.398   5.667  0.6368  0.1157  0.5888
   57MOL   C16918201   7.743   8.273   5.728  0.9244 -0.4113 -0.5559
   57MOL   C17018202   7.825   7.897   5.749  0.3278  0.1840  0.1798
   57MOL   H17118203   7.681   8.044   5.801 -0.9313 -2.2166 -1.0240
   57MOL   H17218204   8.010   8.080   5.654  2.0228  0.5620  0.6431
   57MOL   H17318205   7.930   0.060   5.542  0.4315  0.9501  1.8021
   57MOL   H17418206   7.710   0.045   5.670 -1.0931 -1.3604  2.6885
   57MOL   H17518207   7.648   8.259   5.778  1.1706 -2.0620 -0.5231
   57MOL   H17618208   7.929   7.908   5.719  0.0109  1.5434 -0.4394
   57MOL   H17718209   7.817   7.816   5.823  0.2788  0.3471  0.3537
   57MOL   C17818210   7.738   7.852   5.627 -0.1851 -0.6186  0.1197
   57MOL   C17918211   7.813   7.750   5.539 -0.1523  0.5028 -0.5062
   57MOL   C18018212   7.758   7.619   5.527  1.0946  0.4929  0.3135
   57MOL   C18118213   7.818   7.529   5.441  0.0419 -0.7505 -0.3005
   57MOL  Cl18218214   7.765   7.365   5.451 -0.1300  0.0879  0.1999
   57MOL   C18318215   7.933   7.570   5.371 -0.7657 -0.9000 -0.3538
   57MOL   C18418216   7.993   7.699   5.384  0.3480  0.1491 -0.4106
   57MOL   C18518217   7.930   7.793   5.463  0.0459 -0.0015 -1.6166
   57MOL   C18618218   7.590   7.829   5.666 -0.3585 -0.3281 -0.3146
   57MOL   H18718219   7.743   7.935   5.557  1.0182 -1.1814 -0.4804
   57MOL   H18818220   7.671   7.580   5.577 -0.4243 -0.2616 -2.8083
   57MOL   H18918221   7.991   7.502   5.310  1.2555  0.3522  0.1114
   57MOL   H19018222   8.078   7.716   5.318  0.2796 -1.2134 -0.8660
   57MOL   H19118223   7.975   7.891   5.468 -0.2272  0.0580 -0.0501
   57MOL   H19218224   7.576   7.728   5.704 -0.1166  0.6100  2.3384
   57MOL   H19318225   7.566   7.892   5.751 -1.5234 -2.5183  1.0458
   57MOL   C19418226   7.486   7.861   5.557 -0.0218 -1.1143  0.3770
   57MOL   C19518227   7.467   7.742   5.461  0.5753 -0.2514  0.0582
   57MOL   C19618228   7.516   7.740   5.330 -0.4076  0.3437 -0.1473
   57MOL   C19718229   7.503   7.626   5.253 -0.5172  0.7077  0.3855
   57MOL  Cl19818230   7.571   7.624   5.096  0.0134  0.1148  0.5429
   57MOL   C19918231   7.442   7.510   5.303 -0.4767 -0.0486 -0.2420
   57MOL   C20018232   7.401   7.507   5.436 -0.1278  0.6643  0.0435
   57MOL   C20118233   7.415   7.622   5.512 -0.4826 -0.3801 -0.6279
   57MOL   C20218234   7.354   7.919   5.600  0.0333 -0.1652 -0.5193
   57MOL   H20318235   7.535   7.931   5.490  0.3373 -0.6798  1.0781
   57MOL   H20418236   7.574   7.828   5.305  0.1119  0.3643  1.1105
   57MOL   H20518237   7.433   7.417   5.248 -0.0356 -1.1625  1.5154
   57MOL   H20618238   7.370   7.409   5.470 -0.2924  0.3024 -1.1230
   57MOL   H20718239   7.381   7.626   5.614  0.4595  1.2647 -0.3637
   57MOL   H20818240   7.321   7.848   5.676  2.4540 -1.8201 -0.9400
   57MOL   H20918241   7.355   8.009   5.661 -1.8117  0.0323 -0.7422
   57MOL   C21018242   7.230   7.930   5.505 -0.5300 -0.0494 -0.1305
   57MOL   C21118243   7.104   7.935   5.588 -0.7859 -0.7777 -0.8412
   57MOL   C21218244   7.014   7.831   5.583  0.0901 -0.1034 -0.0389
   57MOL   C21318245   6.899   7.842   5.663 -0.0040  0.0781  0.5243
   57MOL  Cl21418246   6.786   7.715   5.660 -0.3340 -0.0703 -0.1768
   57MOL   C21518247   6.879   7.948   5.754 -0.4504 -0.6141  0.6314
   57MOL   C21618248   6.965   8.054   5.751 -0.6163 -0.5283  0.2455
   57MOL   C21718249   7.076   8.046   5.666  0.0636 -0.0919 -0.1854
   57MOL   C21818250   7.233   8.046   5.396 -0.1557  0.4592  0.1079
   57MOL   H21918251   7.218   7.834   5.454 -1.6356 -1.0851  2.0114
   57MOL   H22018252   7.043   7.747   5.521 -0.2687  0.3655 -0.8588
   57MOL   H22118253   6.788   7.947   5.813 -0.4966 -1.0060  0.5497
   57MOL   H22218254   6.957   8.136   5.820 -0.7671  0.8411 -1.3496
   57MOL   H22318255   7.147   8.128   5.671  0.9852 -0.8100 -1.3015
   57MOL   H22418256   7.154   8.121   5.403 -1.8190 -1.2443  0.1432
   57MOL   H22518257   7.321   8.105   5.419  0.5857 -1.0490  1.2404
   57MOL   C22618258   7.246   7.983   5.257 -1.1786 -0.0340 -1.2800
   57MOL   C22718259   7.130   7.893   5.221 -0.1861  0.5793  0.0031
   57MOL   C22818260   7.154   7.752   5.201 -0.3799 -0.1675 -0.1490
   57MOL   C22918261   7.044   7.663   5.177 -0.5161  0.1788  0.7191
   57MOL  Cl23018262   7.069   7.494   5.171 -0.5415 -0.0487  0.4115
   57MOL   C23118263   6.912   7.714   5.172 -0.3753 -0.8190 -0.0386
   57MOL   C23218264   6.892   7.852   5.201  0.0631  0.0038  0.0632
   57MOL   C23318265   6.998   7.943   5.217 -0.2639  0.6226  0.0106
   57MOL   C23418266   7.262   8.085   5.135  0.7020  0.2477  0.0899
   57MOL   H23518267   7.340   7.929   5.271 -1.3243 -0.0499 -0.3018
   57MOL   H23618268   7.253   7.710   5.213  0.1518  1.1422  0.1572
   57MOL   H23718269   6.821   7.658   5.159 -0.8144 -0.5158  1.6611
   57MOL   H23818270   6.790   7.888   5.206  0.7006  1.6424  2.2708
   57MOL   H23918271   6.986   8.048   5.240  0.1816  0.0508  3.0292
   57MOL   H24018272   7.285   8.030   5.043  1.9221  1.4476 -0.3455
   57MOL   H24118273   7.171   8.140   5.111  0.6021  0.4757  0.9924
   57MOL   C24218274   7.368   8.198   5.148  0.8803 -1.0065  0.6403
   57MOL   C24318275   7.498   8.142   5.188  0.1570 -0.2008  0.5180
   57MOL   C24418276   7.576   8.056   5.107  0.5623 -0.0088  0.4942
   57MOL   C24518277   7.702   8.009   5.144 -0.0079  1.1010  0.2535
   57MOL  Cl24618278   7.798   7.915   5.032  0.2856 -0.4435 -0.3136
   57MOL   C24718279   7.750   8.049   5.270 -0.0196 -0.4842  0.0488
   57MOL   C24818280   7.682   8.146   5.350 -1.1273 -0.0595  0.8799
   57MOL   C24918281   7.555   8.189   5.307 -0.3277  0.0016 -0.2992
   57MOL   C25018282   7.381   8.277   5.012  0.1046  0.6230  0.3403
   57MOL   H25118283   7.339   8.274   5.220 -1.8170 -0.1318 -1.2688
   57MOL   H25218284   7.542   8.039   5.006 -0.6259  2.4312  0.4520
   57MOL   H25318285   7.847   8.016   5.302  0.5004  0.9643  0.0146
   57MOL   H25418286   7.727   8.194   5.436  0.0156 -0.1959  0.3677
   57MOL   H25518287   7.501   8.263   5.364 -1.3624  0.3916 -1.7433
   57MOL   H25618288   7.436   8.223   4.934 -1.3902 -0.7442  0.2029
   57MOL   H25718289   7.282   8.274   4.965  1.2813  0.6399 -2.2292
   57MOL   C25818290   7.433   8.426   5.025 -0.0290  0.0738  0.1337
   57MOL   C25918291   7.564   0.018   5.101 -0.1775  0.2518  0.6322
   57MOL   C26018292   7.677   8.385   5.061 -0.2574 -0.1937 -0.1914
   57MOL   C26118293   7.798   8.400   5.130 -0.1265  0.0167  0.8753
   57MOL  Cl26218294   7.935   8.296   5.093  0.2502 -0.2802  0.0219
   57MOL   C26318295   7.815   0.063   5.228  0.0373 -0.4843 -0.2665
   57MOL   C26418296   7.697   0.124   5.281  0.3505 -0.4004 -0.4073
   57MOL   C26518297   7.569   0.101   5.220 -0.2631  0.3222  0.8676
   57MOL   C26618298   7.451   0.060   4.881  0.3014 -0.9202  0.6517
   57MOL   H26718299   7.349   0.041   5.072  0.5123  1.4391 -0.3434
   57MOL   H26818300   7.683   8.315   4.979  0.2314  0.0566 -0.3720
   57MOL   H26918301   7.903   0.077   5.290  0.5938  1.5149 -1.4595
   57MOL   H27018302   7.705   0.188   5.367 -1.2981 -0.3930 -0.2480
   57MOL   H27118303   7.477   0.146   5.254 -0.3734 -0.0141  1.0142
   57MOL   H27218304   7.495   0.159   4.894  1.8079 -1.3132 -1.2099
   57MOL   H27318305   7.525   8.432   4.832  1.3106  0.6560  0.1183
   57MOL   C27418306   7.322   0.068   4.796  0.0965 -0.5150 -0.3131
   57MOL   C27518307   7.201   0.112   4.870 -0.3208 -0.3231 -0.1839
   57MOL   C27618308   7.088   0.028   4.878 -0.2722 -0.0412  0.6292
   57MOL   C27718309   6.983   0.056   4.960 -0.4328 -0.5204 -0.2102
   57MOL  Cl27818310   6.848   8.383   4.962  0.3176 -0.2857  0.0141
   57MOL   C27918311   6.984   0.180   5.030  0.2962  0.4596 -0.2114
   57MOL   C28018312   7.089   0.266   5.030 -0.3171 -1.2526  0.2961
   57MOL   C28118313   7.202   0.229   4.949 -0.2709 -0.5477  0.0965
   57MOL   C28218314   7.331   0.155   4.668 -0.1408 -0.2876  1.0720
   57MOL   H28318315   7.305   8.408   4.746 -0.3346 -0.1533 -0.8723
   57MOL   H28418316   7.084   8.370   4.822  0.3444  3.1335 -5.0406
   57MOL   H28518317   6.892   0.203   5.082  0.5578  1.9056 -0.3483
   57MOL   H28618318   7.086   0.356   5.089  0.4801 -0.8612 -0.2378
   57MOL   H28718319   7.288   0.294   4.952 -2.0486  1.8970 -0.3663
   57MOL   H28818320   7.228   0.158   4.632 -0.1670 -1.9212  1.0043
   57MOL   H28918321   7.350   0.260   4.692 -1.4649 -0.0358  1.0648
   57MOL   C29018322   7.429   0.102   4.549 -0.5093  0.1801 -0.9296
   57MOL   C29118323   7.376   0.161   4.422 -0.2350  0.0226 -0.0802
   57MOL   C29218324   7.313   0.085   4.321  1.0851 -0.0071 -0.8537
   57MOL   C29318325   7.267   0.141   4.202  0.0001  0.1642  0.0792
   57MOL  Cl29418326   7.196   0.040   4.082 -0.2815 -0.4558  0.0187
   57MOL   C29518327   7.276   0.279   4.183 -0.5012 -0.2443 -0.0536
   57MOL   C29618328   7.326   0.361   4.283  1.0353 -0.1807 -0.1237
   57MOL   C29718329   7.375   0.304   4.401  0.2513 -0.4763  0.2041
   57MOL   C29818330   7.584   0.130   4.566 -0.3089 -0.1326  0.3369
   57MOL   H29918331   7.411   8.430   4.546  0.3210 -0.1136  2.6169
   57MOL   H30018332   7.311   8.413   4.336  0.8971  0.1331  0.1524
   57MOL   H30118333   7.248   0.322   4.088  0.9921  0.4020 -0.2229
   57MOL   H30218334   7.336   0.467   4.268 -2.1949  0.1048 -0.6037
   57MOL   H30318335   7.430   0.353   4.480 -0.3446  0.5839 -0.0229
   57MOL   H30418336   7.614   0.229   4.532 -1.6384  0.5609  1.1240
   57MOL   H30518337   7.605   0.144   4.671 -1.7421 -1.0775  0.7718
   57MOL   C30618338   7.681   0.037   4.502 -0.2208 -0.1734 -0.2350
   57MOL   C30718339   7.658   8.325   4.548  0.4267  0.1314 -0.4166
   57MOL   C30818340   7.606   8.230   4.450 -0.3891 -0.7646  0.4313
   57MOL   C30918341   7.603   8.095   4.481 -0.2081  0.2401  0.0885
   57MOL  Cl31018342   7.582   7.975   4.357  0.3278  0.0852  0.1345
   57MOL   C31118343   7.628   8.056   4.616  0.3193 -0.0666  0.2890
   57MOL   C31218344   7.673   8.149   4.713 -0.3512 -1.0898  0.5471
   57MOL   C31318345   7.690   8.287   4.676  0.2073  0.5077 -0.3205
   57MOL   C31418346   7.698   0.060   4.345  0.4332  0.8003  1.2456
   57MOL   H31518347   7.775   0.064   4.550  0.2479  1.8593 -2.2152
   57MOL   H31618348   7.602   8.251   4.345  0.9787 -0.3591  0.4398
   57MOL   H31718349   7.618   7.950   4.632 -1.9757 -0.0396 -0.7372
   57MOL   H31818350   7.703   8.121   4.813  2.4688 -0.2793 -0.0172
   57MOL   H31918351   7.738   8.352   4.746 -0.5266  0.8270 -0.1053
   57MOL   H32018352   7.750   0.153   4.321 -2.2133  1.8345 -0.8066
   57MOL   H32118353   7.757   8.419   4.294 -1.9528 -2.2901  2.8870
   57MOL   H32218354   7.597   0.076   4.306  1.0310  0.7159 -0.3823
   58MOL     C118355   3.392   3.704   3.813 -0.0173 -0.1494  0.1291
   58MOL     C218356   3.244   3.722   3.782 -0.3506  0.4367  0.4411
   58MOL     C318357   3.197   3.821   3.692  0.6422 -0.1068 -0.1344
   58MOL     C418358   3.055   3.838   3.678 -0.5266 -0.2146 -0.1844
   58MOL    Cl518359   2.995   3.950   3.571  0.0531 -0.0350 -0.0088
   58MOL     C618360   2.966   3.755   3.748  0.2578  0.4271 -0.5380
   58MOL     C718361   3.014   3.648   3.834 -0.7606 -0.3961 -0.3050
   58MOL     C818362   3.151   3.635   3.847 -0.0333  0.0387  0.3070
   58MOL     C918363   3.426   3.682   3.963  0.0979  0.1668  0.7750
   58MOL    H1018364   3.447   3.784   3.765 -1.5071 -0.3349 -1.9573
   58MOL    H1118365   3.263   3.880   3.629  1.4897 -0.1734  0.6758
   58MOL    H1218366   2.861   3.765   3.726  0.5082 -1.0883 -2.6314
   58MOL    H1318367   2.954   3.586   3.898 -1.2398  0.3339 -0.0343
   58MOL    H1418368   3.185   3.550   3.905  0.3132 -1.9847 -2.7685
   58MOL    H1518369   3.375   3.591   3.997  0.8452 -0.6920 -0.3671
   58MOL    H1618370   3.532   3.657   3.960 -0.2943 -1.6266  0.8698
   58MOL    H1718371   3.416   3.609   3.764  1.3666 -0.9205  2.2118
   58MOL    C1818372   3.389   3.803   4.058  0.0859 -0.3444  0.6487
   58MOL    C1918373   3.414   3.774   4.208 -0.2238 -1.2374 -0.5635
   58MOL    C2018374   3.541   3.746   4.261 -0.6621  0.7811  0.7479
   58MOL    C2118375   3.557   3.739   4.400 -0.1045 -0.2800  0.4448
   58MOL   Cl2218376   3.712   3.696   4.471  0.1274  0.0151 -0.1518
   58MOL    C2318377   3.445   3.749   4.486 -0.1957 -0.1328 -0.1473
   58MOL    C2418378   3.318   3.776   4.434  0.0812 -0.3742 -0.3720
   58MOL    C2518379   3.306   3.801   4.296 -0.0704  0.8060  0.3298
   58MOL    C2618380   3.455   3.935   4.016  0.1425  0.0502 -0.0886
   58MOL    H2718381   3.284   3.823   4.039  0.2096 -1.2284 -1.1133
   58MOL    H2818382   3.622   3.729   4.192 -1.4748  0.2356 -0.0839
   58MOL    H2918383   3.456   3.751   4.594  1.2858 -0.1649 -0.2930
   58MOL    H3018384   3.231   3.779   4.498  1.4292  0.7115  1.4602
   58MOL    H3118385   3.210   3.836   4.260 -1.2141 -1.5227  1.0378
   58MOL    H3218386   3.500   3.982   4.104  0.9379 -0.5543 -0.1667
   58MOL    H3318387   3.544   3.919   3.955  1.5370  0.8915  1.6536
   58MOL    C3418388   3.362   4.043   3.958 -0.2689  0.3436 -0.3284
   58MOL    C3518389   3.234   4.068   4.041  0.3936  0.0170  0.3178
   58MOL    C3618390   3.250   4.116   4.176 -0.2886  0.2040  0.1701
   58MOL    C3718391   3.138   4.145   4.255 -0.2417 -0.3967 -0.0195
   58MOL   Cl3818392   3.160   4.220   4.406  0.0857 -0.1258 -0.3115
   58MOL    C3918393   3.008   4.120   4.209 -0.0046 -0.1913  1.0162
   58MOL    C4018394   2.992   4.068   4.078  0.1293 -0.5633  0.2940
   58MOL    C4118395   3.102   4.046   3.995 -0.9226  0.0303  0.4091
   58MOL    C4218396   3.437   4.178   3.939 -0.1983 -0.7492 -0.1625
   58MOL    H4318397   3.328   4.004   3.862  0.0245  2.6793 -1.4186
   58MOL    H4418398   3.348   4.133   4.218 -0.2168 -0.4792  0.2814
   58MOL    H4518399   2.924   4.140   4.274 -0.6286 -0.5100  0.3191
   58MOL    H4618400   2.890   4.057   4.044  0.8698 -2.7188 -1.3675
   58MOL    H4718401   3.079   4.007   3.897 -0.7442 -0.5789  0.6099
   58MOL    H4818402   3.373   4.248   3.885 -0.1830 -0.4535  0.2000
   58MOL    H4918403   3.469   4.218   4.035 -1.1953 -0.3691  0.0239
   58MOL    C5018404   3.573   4.162   3.863  0.3935  0.9159  0.2887
   58MOL    C5118405   3.558   4.087   3.727 -0.1461 -0.1898 -0.1041
   58MOL    C5218406   3.449   4.120   3.643  0.0126  0.0941  0.4353
   58MOL    C5318407   3.431   4.051   3.516  0.6812 -0.0016  0.1635
   58MOL   Cl5418408   3.305   4.092   3.409 -0.0352 -0.3887  0.2885
   58MOL    C5518409   3.527   3.956   3.476  0.2415 -0.2199 -0.0871
   58MOL    C5618410   3.633   3.922   3.562  0.1663  1.2084 -0.2979
   58MOL    C5718411   3.649   3.988   3.683  0.0444  0.0856  0.1313
   58MOL    C5818412   3.634   4.300   3.835  0.1569 -0.0589 -0.6625
   58MOL    H5918413   3.649   4.102   3.912  0.6211 -0.1798 -1.3645
   58MOL    H6018414   3.376   4.194   3.673 -1.6605 -1.6569  0.7956
   58MOL    H6118415   3.529   3.918   3.375  1.2038  1.7785 -0.8506
   58MOL    H6218416   3.712   3.857   3.529 -0.7278  0.4616 -0.9919
   58MOL    H6318417   3.738   3.962   3.738  0.9419 -0.1134 -1.4102
   58MOL    H6418418   3.565   4.359   3.774  0.1699  0.1429 -0.4834
   58MOL    H6518419   3.646   4.355   3.929  0.9315 -0.9582 -0.2225
   58MOL    C6618420   3.768   4.309   3.758  0.2572 -0.3344 -0.7534
   58MOL    C6718421   3.776   4.441   3.690  0.2419 -0.2024 -0.0470
   58MOL    C6818422   3.738   4.455   3.557 -0.9155 -0.1729  0.8931
   58MOL    C6918423   3.733   4.588   3.501 -0.2088  0.3187 -0.6378
   58MOL   Cl7018424   3.684   4.617   3.341  0.1977  0.2055 -0.0365
   58MOL    C7118425   3.753   4.705   3.581 -0.5062 -1.0712  0.4499
   58MOL    C7218426   3.806   4.687   3.710  0.4973 -0.0779 -0.1803
   58MOL    C7318427   3.820   4.556   3.759  0.7015  0.3494  0.4789
   58MOL    C7418428   3.888   4.272   3.839 -0.2923  0.0966 -0.4555
   58MOL    H7518429   3.751   4.232   3.682  1.9349  0.2839 -1.7907
   58MOL    H7618430   3.697   4.375   3.496 -1.8272  1.3314 -0.4827
   58MOL    H7718431   3.735   4.805   3.545 -1.6920 -1.4406 -0.0225
   58MOL    H7818432   3.831   4.767   3.778  1.4546  0.2916 -0.9510
   58MOL    H7918433   3.858   4.551   3.860  1.1754 -1.1860  0.2359
   58MOL    H8018434   3.926   4.353   3.901 -1.5357  0.7695 -0.5593
   58MOL    H8118435   3.854   4.201   3.914 -1.9453  0.3880 -0.9037
   58MOL    C8218436   4.008   4.220   3.755 -0.0849 -0.7582  0.3006
   58MOL    C8318437   4.048   4.313   3.637 -0.2282 -0.3743 -0.1695
   58MOL    C8418438   4.016   4.279   3.505  0.4788  0.0336  0.1040
   58MOL    C8518439   4.062   4.364   3.400  0.2589  0.0793 -0.7020
   58MOL   Cl8618440   4.022   4.318   3.235 -0.1057  0.0684 -0.0457
   58MOL    C8718441   4.133   4.478   3.423 -0.4518 -0.1303 -0.3684
   58MOL    C8818442   4.162   4.514   3.559  0.9006 -0.2987 -0.2152
   58MOL    C8918443   4.126   4.433   3.664  0.6613  0.3678 -0.3034
   58MOL    C9018444   4.128   4.194   3.849 -0.0182 -0.2759  0.6569
   58MOL    H9118445   3.989   4.130   3.697 -1.3047  0.8993 -1.9528
   58MOL    H9218446   3.961   4.189   3.483 -1.1225  0.9548  0.2663
   58MOL    H9318447   4.166   4.550   3.350 -1.1076  2.3100  1.6557
   58MOL    H9418448   4.205   4.610   3.581  0.8022 -0.0284 -1.1636
   58MOL    H9518449   4.154   4.457   3.766  0.8983 -1.1176 -0.0143
   58MOL    H9618450   4.206   4.147   3.789  1.3024  0.6932  1.5634
   58MOL    H9718451   4.178   4.283   3.889 -0.9406  0.3849  0.3569
   58MOL    C9818452   4.104   4.093   3.969  0.6074 -0.0290 -0.0640
   58MOL    C9918453   4.023   3.969   3.937 -0.5330  0.3959 -0.3300
   58MOL   C10018454   4.036   3.905   3.811 -0.0342 -0.5982 -0.4743
   58MOL   C10118455   3.957   3.794   3.788  0.0848  0.1680  0.2169
   58MOL  Cl10218456   3.953   3.727   3.623 -0.5951 -0.1856  0.5459
   58MOL   C10318457   3.880   3.736   3.894  0.2554 -0.6596  0.5751
   58MOL   C10418458   3.872   3.794   4.022 -0.3525  0.7828  0.2319
   58MOL   C10518459   3.947   3.908   4.046 -0.1194  0.1579  0.7783
   58MOL   C10618460   4.231   4.060   4.050 -0.1592  0.6058 -0.1648
   58MOL   H10718461   4.043   4.153   4.037  0.4146  2.5507 -2.4182
   58MOL   H10818462   4.102   3.939   3.734  1.4405 -0.4584  0.8307
   58MOL   H10918463   3.835   3.638   3.880 -2.1666  0.5207 -0.2829
   58MOL   H11018464   3.810   3.755   4.101 -0.3016  0.0440 -0.0847
   58MOL   H11118465   3.929   3.959   4.139 -1.3649  0.2042  0.5165
   58MOL   H11218466   4.218   3.961   4.095  2.4468 -0.7110 -2.1705
   58MOL   H11318467   4.301   4.049   3.968 -1.2642 -0.9509 -0.9347
   58MOL   C11418468   4.277   4.172   4.147 -0.0867  0.1387 -0.1633
   58MOL   C11518469   4.193   4.174   4.277  0.0197 -0.7526  0.3455
   58MOL   C11618470   4.111   4.069   4.332 -0.2674  0.3731 -0.0544
   58MOL   C11718471   4.026   4.090   4.441  0.2638  0.1975  0.2531
   58MOL  Cl11818472   3.942   3.965   4.523 -0.3840  0.1483 -0.1773
   58MOL   C11918473   4.018   4.222   4.499  0.1777 -0.7033  0.1054
   58MOL   C12018474   4.097   4.330   4.444 -0.5799 -0.0622 -0.0399
   58MOL   C12118475   4.183   4.306   4.335 -0.0390 -0.1815 -0.0936
   58MOL   C12218476   4.432   4.171   4.169 -0.7138 -0.2096  0.7541
   58MOL   H12318477   4.250   4.272   4.114 -1.3805 -0.1581 -0.0448
   58MOL   H12418478   4.112   3.971   4.287  2.5763 -0.9333  2.6470
   58MOL   H12518479   3.951   4.241   4.582  0.5676 -0.4196  0.3572
   58MOL   H12618480   4.078   4.428   4.486 -0.2778 -0.5561  1.2594
   58MOL   H12718481   4.242   4.391   4.305  0.0621 -0.4375 -0.6166
   58MOL   H12818482   4.439   4.253   4.240  1.9273  2.5043 -2.4442
   58MOL   H12918483   4.461   4.085   4.228  1.9076 -0.9893 -1.5552
   58MOL   C13018484   4.534   4.206   4.053 -0.0524 -0.2475  0.3578
   58MOL   C13118485   4.499   4.327   3.973 -0.2346 -0.8264  0.6135
   58MOL   C13218486   4.456   4.442   4.043  0.2410 -0.3661 -0.4816
   58MOL   C13318487   4.424   4.560   3.972 -0.2547  0.0475  0.1232
   58MOL  Cl13418488   4.347   4.693   4.062 -0.4618  0.1947  0.1033
   58MOL   C13518489   4.452   4.571   3.835 -0.7118 -0.1963 -0.2261
   58MOL   C13618490   4.496   4.456   3.761 -0.4125  0.5190 -0.1420
   58MOL   C13718491   4.518   4.337   3.834 -0.5689  0.2722  0.4928
   58MOL   C13818492   4.674   4.221   4.116 -0.6032  0.0497  0.7530
   58MOL   H13918493   4.527   4.115   3.994 -1.8728 -0.4599  0.8791
   58MOL   H14018494   4.444   4.444   4.150  3.1099  2.4985 -0.1371
   58MOL   H14118495   4.429   4.666   3.788 -0.6367 -0.1644 -0.1977
   58MOL   H14218496   4.511   4.462   3.654  1.8679 -0.0087  0.1045
   58MOL   H14318497   4.564   4.252   3.786 -1.3047 -0.4675  1.0749
   58MOL   H14418498   4.674   4.310   4.179  1.7442  0.4287  0.2641
   58MOL   H14518499   4.691   4.142   4.189 -1.0052 -1.1084 -0.4043
   58MOL   C14618500   4.792   4.238   4.019  0.0698 -0.2123 -0.0394
   58MOL   C14718501   4.908   4.318   4.077  1.0296  0.5046  0.4775
   58MOL   C14818502   4.973   4.414   3.998 -0.3213 -0.2105 -0.2382
   58MOL   C14918503   5.088   4.475   4.035  0.6088  0.5426 -0.0557
   58MOL  Cl15018504   5.159   4.589   3.929 -0.1910  0.2497  0.0231
   58MOL   C15118505   5.155   4.437   4.153 -0.3068 -0.4718 -0.1325
   58MOL   C15218506   5.093   4.342   4.236  0.8968 -0.0554  0.0692
   58MOL   C15318507   4.972   4.286   4.194  0.7139 -0.0079  0.3747
   58MOL   C15418508   4.839   4.098   3.975 -0.3500 -0.1781  0.5715
   58MOL   H15518509   4.749   4.288   3.932  0.6001  0.0330 -0.1639
   58MOL   H15618510   4.928   4.436   3.901  0.3306  3.1542  0.1641
   58MOL   H15718511   5.243   4.494   4.178 -1.3603  1.0706  0.1303
   58MOL   H15818512   5.137   4.314   4.331  0.6528  1.7044  0.7258
   58MOL   H15918513   4.941   4.204   4.257 -0.2936 -1.1560 -1.5475
   58MOL   H16018514   4.872   4.044   4.064  1.8601 -2.1454 -1.3649
   58MOL   H16118515   4.748   4.050   3.940 -0.4069  2.1092 -2.5987
   58MOL   C16218516   4.947   4.081   3.869  0.0737 -0.1294 -0.4491
   58MOL   C16318517   4.988   3.934   3.854  1.0979 -0.8117  0.7179
   58MOL   C16418518   4.911   3.841   3.774  0.2239  0.1669 -0.1407
   58MOL   C16518519   4.954   3.708   3.782 -0.3153  0.5553  0.1673
   58MOL  Cl16618520   4.847   3.590   3.706 -0.2219  0.1371 -0.0560
   58MOL   C16718521   5.078   3.672   3.841 -0.4696 -0.6340  0.0824
   58MOL   C16818522   5.152   3.765   3.911  0.0777  0.0786  0.2164
   58MOL   C16918523   5.106   3.897   3.922  0.1047 -0.6805 -0.7483
   58MOL   C17018524   4.928   4.140   3.734 -0.0014 -0.0591 -0.3026
   58MOL   H17118525   5.034   4.134   3.907 -1.3984  3.3515 -1.7714
   58MOL   H17218526   4.817   3.876   3.732  0.8234  2.3882  0.3046
   58MOL   H17318527   5.117   3.575   3.815  1.5739  0.4051 -0.8699
   58MOL   H17418528   5.250   3.748   3.953  1.0645  2.0287 -1.2482
   58MOL   H17518529   5.166   3.971   3.974 -0.9795 -1.4295  1.6548
   58MOL   H17618530   4.845   4.091   3.683 -0.6720 -1.5031  2.1227
   58MOL   H17718531   4.883   4.239   3.738  3.6331  1.7639 -2.1036
   58MOL   C17818532   5.050   4.125   3.640  0.3304  0.9134  0.0606
   58MOL   C17918533   5.009   4.055   3.512  0.7697  0.5948  0.9064
   58MOL   C18018534   5.061   3.931   3.473  0.1479  0.3267 -0.1479
   58MOL   C18118535   5.016   3.878   3.348  0.2617  0.1319  0.2745
   58MOL  Cl18218536   5.099   3.739   3.275 -0.2639 -0.2099 -0.2072
   58MOL   C18318537   4.906   3.934   3.285 -0.2608  0.8842 -0.1675
   58MOL   C18418538   4.852   4.055   3.332 -0.5111 -0.0647 -0.6291
   58MOL   C18518539   4.907   4.122   3.442 -0.3785 -0.7173  0.2098
   58MOL   C18618540   5.130   4.254   3.619  0.7688 -0.3624  0.6832
   58MOL   H18718541   5.119   4.051   3.682  2.0650  2.3776 -0.1496
   58MOL   H18818542   5.143   3.883   3.524 -0.0528  1.4464  1.2312
   58MOL   H18918543   4.862   3.883   3.200 -1.1255  1.2450  0.0621
   58MOL   H19018544   4.764   4.104   3.292 -0.0636  0.9504 -0.3779
   58MOL   H19118545   4.868   4.216   3.477  1.2019  0.3324 -0.7988
   58MOL   H19218546   5.086   4.322   3.546  1.3902  0.2074  0.8270
   58MOL   H19318547   5.128   4.310   3.713  0.4901 -0.6436  0.8465
   58MOL   C19418548   5.287   4.244   3.605  0.5743 -0.6030 -0.4099
   58MOL   C19518549   5.359   4.172   3.712  0.0720 -0.5375  0.0639
   58MOL   C19618550   5.375   4.229   3.840  0.6215  0.7474  0.5896
   58MOL   C19718551   5.438   4.167   3.947 -0.2336 -0.3712  0.2415
   58MOL  Cl19818552   5.453   4.243   4.099 -0.0766 -0.0538 -0.1383
   58MOL   C19918553   5.463   4.027   3.935 -0.6846 -0.4630  0.0092
   58MOL   C20018554   5.441   3.970   3.813 -0.3676 -0.8422  0.4355
   58MOL   C20118555   5.384   4.034   3.700  0.2079 -0.2366 -0.5509
   58MOL   C20218556   5.323   4.211   3.457  0.1356  0.7242  0.4234
   58MOL   H20318557   5.322   4.348   3.607  0.4583 -0.5752  1.7778
   58MOL   H20418558   5.334   4.328   3.846 -0.2404  0.3139  1.9352
   58MOL   H20518559   5.504   3.972   4.019 -1.7603 -0.1875  0.7290
   58MOL   H20618560   5.457   3.865   3.794  2.2401 -0.3333 -0.4157
   58MOL   H20718561   5.370   3.978   3.608  0.8183 -0.7740 -0.3234
   58MOL   H20818562   5.286   4.112   3.433 -0.8368  0.6166  2.2634
   58MOL   H20918563   5.280   4.286   3.390  0.1617  1.7323  1.5119
   58MOL   C21018564   5.476   4.206   3.425 -0.3960  0.3018  0.4013
   58MOL   C21118565   5.509   4.213   3.274  0.7829  0.2274  0.3851
   58MOL   C21218566   5.580   4.106   3.206 -0.0294  0.1643 -1.6480
   58MOL   C21318567   5.615   4.116   3.069 -1.0114 -0.3685  0.9360
   58MOL  Cl21418568   5.721   4.004   2.999  0.0436  0.1883  0.4019
   58MOL   C21518569   5.582   4.233   3.003  0.1695  0.3819  0.4605
   58MOL   C21618570   5.507   4.337   3.056  0.0108  0.1267  0.1257
   58MOL   C21718571   5.473   4.328   3.193 -0.4285  0.9659  0.8855
   58MOL   C21818572   5.564   4.308   3.501 -0.7399  0.3113 -0.1561
   58MOL   H21918573   5.527   4.116   3.458  1.2715  0.3017 -2.0929
   58MOL   H22018574   5.605   4.017   3.261 -1.8728  0.6608  0.0504
   58MOL   H22118575   5.609   4.241   2.898 -3.0001  1.9523 -0.2986
   58MOL   H22218576   5.484   4.427   3.001 -0.0346 -0.3542 -0.6604
   58MOL   H22318577   5.424   4.415   3.235 -1.2578  0.7209  0.4518
   58MOL   H22418578   5.527   4.409   3.487  0.5087  0.5161 -2.3300
   58MOL   H22518579   5.552   4.291   3.608 -1.5477 -4.2880 -0.8582
   58MOL   C22618580   5.720   4.312   3.463  0.5061 -0.0403 -0.4597
   58MOL   C22718581   5.758   4.436   3.380  0.6869 -0.7518 -0.3264
   58MOL   C22818582   5.789   4.409   3.245 -0.1660 -0.7431  0.2483
   58MOL   C22918583   5.820   4.517   3.166 -0.1804  0.2048 -0.0083
   58MOL  Cl23018584   5.883   4.487   3.008 -0.3967 -0.1094 -0.3043
   58MOL   C23118585   5.829   4.645   3.216 -1.0696  0.3012 -0.2588
   58MOL   C23218586   5.788   4.672   3.346  0.2342  0.3478  0.5526
   58MOL   C23318587   5.742   4.564   3.427  0.5100  0.0350  0.4493
   58MOL   C23418588   5.813   4.293   3.583 -0.4825  0.0457 -0.2086
   58MOL   H23518589   5.734   4.227   3.396  0.1512 -0.5308  0.0829
   58MOL   H23618590   5.794   4.310   3.203  0.9530 -0.5828 -0.0342
   58MOL   H23718591   5.874   4.719   3.152  2.0705 -2.6534 -1.6376
   58MOL   H23818592   5.795   4.773   3.384 -1.0751  1.4941 -2.0827
   58MOL   H23918593   5.714   4.578   3.531  0.1202  0.4485  0.2887
   58MOL   H24018594   5.916   4.314   3.555 -0.4019 -1.8636 -1.4573
   58MOL   H24118595   5.785   4.364   3.661 -0.7339 -0.3477  0.0568
   58MOL   C24218596   5.826   4.156   3.649 -0.1187 -0.2353  0.3289
   58MOL   C24318597   5.814   4.040   3.554  0.7484  0.2126  0.0404
   58MOL   C24418598   5.701   3.956   3.566 -0.5599  0.0027  0.3293
   58MOL   C24518599   5.694   3.855   3.476 -0.2296  0.7520 -0.0962
   58MOL  Cl24618600   5.562   3.742   3.482 -0.2175 -0.3426  0.0353
   58MOL   C24718601   5.792   3.829   3.377  0.4608  0.0390  0.1310
   58MOL   C24818602   5.906   3.908   3.368  0.2231  0.5039 -0.6539
   58MOL   C24918603   5.918   4.014   3.464  0.2809  0.1132  0.0418
   58MOL   C25018604   5.942   4.146   3.751  0.9285  0.1739 -0.1633
   58MOL   H25118605   5.738   4.147   3.712 -0.9501  2.3025 -0.4044
   58MOL   H25218606   5.630   3.964   3.647 -0.3425 -0.2853  0.5519
   58MOL   H25318607   5.783   3.752   3.302 -0.8809 -0.8593  1.1974
   58MOL   H25418608   5.982   3.891   3.293 -0.2751  0.2166 -1.1013
   58MOL   H25518609   6.010   4.069   3.460  0.7081 -0.7231 -2.1703
   58MOL   H25618610   6.036   4.117   3.704  0.3819 -1.5947 -0.1799
   58MOL   H25718611   5.975   4.246   3.780  0.5195  0.2073  0.1812
   58MOL   C25818612   5.911   4.067   3.876 -0.2410  0.1255 -0.8341
   58MOL   C25918613   5.882   3.916   3.849  0.6535  0.1567 -0.1165
   58MOL   C26018614   5.965   3.837   3.770  0.5395  0.4796  0.4462
   58MOL   C26118615   5.936   3.703   3.745  0.2504 -0.0250 -1.0394
   58MOL  Cl26218616   6.036   3.611   3.642  0.0020 -0.0818  0.1932
   58MOL   C26318617   5.826   3.636   3.803 -0.0867 -0.2954 -0.1737
   58MOL   C26418618   5.737   3.711   3.880  0.0666  0.2417  0.0625
   58MOL   C26518619   5.768   3.847   3.904 -0.7211 -0.0928  0.0970
   58MOL   C26618620   6.012   4.086   3.989  0.2108 -0.5601  0.2034
   58MOL   H26718621   5.814   4.099   3.913 -0.1793  1.5048 -1.8538
   58MOL   H26818622   6.063   3.869   3.736  0.8796  0.0272  1.0039
   58MOL   H26918623   5.796   3.535   3.778 -1.7421  0.4588 -1.3806
   58MOL   H27018624   5.644   3.663   3.907  0.1921  0.6668  1.2982
   58MOL   H27118625   5.701   3.903   3.967  0.6425 -0.4517  1.9210
   58MOL   H27218626   6.004   4.002   4.059  2.1486  1.6027  3.1713
   58MOL   H27318627   6.106   4.077   3.934  0.7545  1.1849  0.8174
   58MOL   C27418628   6.009   4.214   4.071 -0.1863  0.5634  0.3649
   58MOL   C27518629   5.955   4.342   4.005  0.2058 -0.4223 -0.2742
   58MOL   C27618630   5.817   4.372   3.999 -0.0986 -0.1548  0.1431
   58MOL   C27718631   5.770   4.480   3.926 -0.3265  0.4166 -0.4629
   58MOL  Cl27818632   5.604   4.524   3.937  0.2438 -0.2088  0.0145
   58MOL   C27918633   5.862   4.577   3.876 -0.3830 -0.3855  0.2195
   58MOL   C28018634   6.003   4.554   3.898 -0.4258  0.1622 -0.0641
   58MOL   C28118635   6.048   4.433   3.956  0.1935 -0.0277 -0.2710
   58MOL   C28218636   5.960   4.193   4.217  0.1715 -0.2667 -0.2886
   58MOL   H28318637   6.115   4.239   4.076 -0.2528  1.3610 -1.7870
   58MOL   H28418638   5.751   4.293   4.032 -0.6035  0.2953  0.2161
   58MOL   H28518639   5.835   4.669   3.827 -0.3673 -0.6816 -0.3574
   58MOL   H28618640   6.077   4.621   3.857 -2.7584  3.8246  1.4879
   58MOL   H28718641   6.154   4.416   3.964  0.0123 -0.9576  0.2811
   58MOL   H28818642   5.858   4.154   4.212 -0.3415  1.2736 -2.4433
   58MOL   H28918643   6.025   4.112   4.250  2.4668  1.3305 -0.7598
   58MOL   C29018644   5.970   4.317   4.312 -0.3392  0.2520  0.0537
   58MOL   C29118645   5.852   4.320   4.423 -0.0425  0.1999  0.0951
   58MOL   C29218646   5.725   4.365   4.378  0.4620  0.2005 -0.3300
   58MOL   C29318647   5.617   4.375   4.474  0.7709  0.4531  0.5288
   58MOL  Cl29418648   5.468   4.450   4.425 -0.3797  0.1774 -0.1153
   58MOL   C29518649   5.639   4.326   4.610  0.2551  0.4733  0.7058
   58MOL   C29618650   5.759   4.272   4.644  0.5045 -0.2503  0.3493
   58MOL   C29718651   5.867   4.273   4.556 -0.5365 -0.3921 -1.0936
   58MOL   C29818652   6.114   4.330   4.367 -0.0202 -0.1316 -0.4986
   58MOL   H29918653   5.948   4.404   4.249  1.4733 -0.5026 -1.6963
   58MOL   H30018654   5.715   4.412   4.282  1.1820 -0.7141 -0.8543
   58MOL   H30118655   5.562   4.336   4.685 -0.4230 -0.4571  0.1622
   58MOL   H30218656   5.776   4.229   4.741  0.5471  0.8279  0.8228
   58MOL   H30318657   5.960   4.237   4.596 -0.6389 -1.2512 -1.6223
   58MOL   H30418658   6.144   4.258   4.442 -0.0006  0.5454  0.1550
   58MOL   H30518659   6.189   4.320   4.289 -0.4866  1.3094 -1.1463
   58MOL   C30618660   6.152   4.471   4.420  0.4235 -0.7286  0.2115
   58MOL   C30718661   6.165   4.581   4.310 -0.3220 -0.3755 -0.3726
   58MOL   C30818662   6.063   4.675   4.285 -0.0593 -0.3913 -0.0600
   58MOL   C30918663   6.080   4.777   4.184 -0.2050  1.1142  0.4483
   58MOL  Cl31018664   5.950   4.879   4.146 -0.1488  0.0450 -0.4765
   58MOL   C31118665   6.197   4.794   4.110 -0.2359  0.7583  0.5314
   58MOL   C31218666   6.294   4.694   4.127 -0.7076  0.1158  0.1274
   58MOL   C31318667   6.285   4.590   4.226 -0.1239  0.0607  0.0701
   58MOL   C31418668   6.083   4.524   4.542 -0.6472  0.0604  0.8113
   58MOL   H31518669   6.254   4.461   4.457  1.3739 -2.0021 -2.6240
   58MOL   H31618670   5.964   4.663   4.325 -0.8253  3.0206 -0.7537
   58MOL   H31718671   6.207   4.885   4.053 -0.6755  0.8058  0.5321
   58MOL   H31818672   6.387   4.693   4.072  0.7352  0.5359  2.4808
   58MOL   H31918673   6.359   4.513   4.242  1.3290  1.2742 -0.6767
   58MOL   H32018674   6.136   4.613   4.575  0.3797 -0.0476 -0.5203
   58MOL   H32118675   5.976   4.546   4.536 -0.5477  0.0258 -1.3113
   58MOL   H32218676   6.085   4.455   4.627 -0.5608 -1.1888 -0.1785
   59MOL     C118677   2.914   7.888   0.290  0.2822  0.5003 -0.3168
   59MOL     C218678   2.987   7.859   0.163  0.5691  0.3016  0.2726
   59MOL     C318679   2.987   7.726   0.122 -0.1352  0.0852  0.1024
   59MOL     C418680   3.041   7.682   0.006  0.9171 -0.3046  0.1633
   59MOL    Cl518681   3.019   7.521   8.393 -0.1320  0.3894  0.0078
   59MOL     C618682   3.111   7.771   8.362  0.1885  0.7639 -0.3583
   59MOL     C718683   3.129   7.904   8.411 -0.1244  0.3558  0.1764
   59MOL     C818684   3.064   7.949   0.090 -0.3099  0.4808 -0.0504
   59MOL     C918685   3.012   7.907   0.409 -0.8783  0.0714  0.5601
   59MOL    H1018686   2.849   7.805   0.317  0.7570 -0.1720 -1.2175
   59MOL    H1118687   2.913   7.664   0.170 -1.5574 -0.5183 -2.7720
   59MOL    H1218688   3.163   7.745   8.272 -2.0747  0.9818 -1.7626
   59MOL    H1318689   3.180   7.977   8.351 -0.3028  0.2941 -0.0530
   59MOL    H1418690   3.072   8.054   0.114  1.7301  0.6306 -1.2929
   59MOL    H1518691   3.074   7.817   0.414  1.6241  1.7976  1.8968
   59MOL    H1618692   3.084   7.985   0.385 -2.2876  1.2332  0.0392
   59MOL    H1718693   2.841   7.967   0.271 -1.7416 -1.5882 -1.5302
   59MOL    C1818694   2.940   7.939   0.541  0.5192  0.0131 -0.5112
   59MOL    C1918695   3.035   7.946   0.662  0.1196  0.0156  0.5397
   59MOL    C2018696   3.042   7.834   0.746  0.2664 -0.1516  0.3529
   59MOL    C2118697   3.130   7.827   0.851 -0.4037  0.1587 -0.2597
   59MOL   Cl2218698   3.132   7.689   0.952  0.0039 -0.4434 -0.4246
   59MOL    C2318699   3.220   7.931   0.873 -0.3772 -1.4193  0.2234
   59MOL    C2418700   3.215   8.041   0.785  0.1750 -0.5244  0.1799
   59MOL    C2518701   3.120   8.057   0.682 -0.1946 -0.1168 -0.3511
   59MOL    C2618702   2.864   8.073   0.528 -0.4697  0.1656  0.4938
   59MOL    H2718703   2.862   7.863   0.553  0.2856  0.3382  0.0220
   59MOL    H2818704   2.980   7.745   0.740 -0.1645  0.1871 -0.1639
   59MOL    H2918705   3.289   7.926   0.956  1.3466  1.3600 -0.9652
   59MOL    H3018706   3.290   8.118   0.797 -1.0115  0.4756  1.4899
   59MOL    H3118707   3.119   8.132   0.604  2.8212  0.2601 -0.1115
   59MOL    H3218708   2.900   8.152   0.595 -0.5060 -0.1528  0.8895
   59MOL    H3318709   2.881   8.117   0.430 -3.3623 -1.6049 -0.8346
   59MOL    C3418710   2.703   8.060   0.538  0.4921 -0.4500 -0.1518
   59MOL    C3518711   2.645   8.009   0.672 -0.1133 -0.6017 -0.2025
   59MOL    C3618712   2.728   8.004   0.789  0.6680  0.1210 -0.1039
   59MOL    C3718713   2.682   7.948   0.912 -0.2154  0.2120 -0.5180
   59MOL   Cl3818714   2.788   7.943   1.053 -0.1118 -0.6263  0.0935
   59MOL    C3918715   2.552   7.896   0.915  0.6688  0.1434  0.1607
   59MOL    C4018716   2.467   7.904   0.800  0.0789 -0.7806 -0.5596
   59MOL    C4118717   2.516   7.958   0.683  0.6203 -0.0962 -0.0710
   59MOL    C4218718   2.633   8.196   0.511 -0.2912  0.5541  0.1546
   59MOL    H4318719   2.666   7.990   0.463 -1.0801  0.7829 -0.5593
   59MOL    H4418720   2.826   8.048   0.777 -0.5006  2.5206 -1.2936
   59MOL    H4518721   2.513   7.855   1.007  0.6591  0.1791  0.1729
   59MOL    H4618722   2.368   7.860   0.801 -0.3625  0.1012 -2.7764
   59MOL    H4718723   2.448   7.951   0.599  0.4204  0.5069  0.0410
   59MOL    H4818724   2.528   8.193   0.541  0.2967  0.1253  2.3099
   59MOL    H4918725   2.675   8.276   0.573  2.7413 -0.5448 -0.3931
   59MOL    C5018726   2.639   8.255   0.368  0.4117  0.2431 -0.6518
   59MOL    C5118727   2.566   8.162   0.267 -0.1288 -0.3842 -0.5190
   59MOL    C5218728   2.636   8.118   0.150 -0.0126  0.2207 -0.5900
   59MOL    C5318729   2.565   8.036   0.059  0.5426  0.0752 -0.3055
   59MOL   Cl5418730   2.639   7.991   8.346 -0.1966 -0.1394  0.0685
   59MOL    C5518731   2.440   7.982   0.086 -0.6101 -0.0369 -0.3666
   59MOL    C5618732   2.370   8.023   0.202  0.5249 -0.4686 -0.1447
   59MOL    C5718733   2.431   8.122   0.283 -0.2663  0.2962  0.2249
   59MOL    C5818734   2.595   8.403   0.348  0.1960 -0.0521 -0.0603
   59MOL    H5918735   2.743   8.248   0.339  0.3985  0.5041 -0.7607
   59MOL    H6018736   2.739   8.147   0.135  1.0205 -3.2328 -0.6171
   59MOL    H6118737   2.394   7.914   0.015 -1.3929 -0.7832  0.8392
   59MOL    H6218738   2.272   7.982   0.223  1.2199 -1.5599  1.0945
   59MOL    H6318739   2.377   8.144   0.374 -0.5493  0.9955 -0.1122
   59MOL    H6418740   2.567   8.422   0.244  1.9201  1.5515 -0.2540
   59MOL    H6518741   2.498   8.409   0.399  0.1505 -0.5971 -0.0725
   59MOL    C6618742   2.700   0.064   0.409 -0.4539 -0.0679  0.2604
   59MOL    C6718743   2.842   0.051   0.348  0.7855  0.9328  0.8519
   59MOL    C6818744   2.957   0.043   0.430  0.0376  1.0149  0.1695
   59MOL    C6918745   3.084   0.014   0.374  0.5567  0.1227  0.2834
   59MOL   Cl7018746   3.224   8.417   0.473 -0.3419 -0.0495  0.2187
   59MOL    C7118747   3.100   8.434   0.235 -0.0992  0.3143 -0.6374
   59MOL    C7218748   2.990   0.024   0.152  0.0026  0.2222 -1.0050
   59MOL    C7318749   2.860   0.054   0.207  0.3987 -0.1987 -0.0476
   59MOL    C7418750   2.658   0.216   0.404  0.2199 -0.1165 -0.2778
   59MOL    H7518751   2.718   0.036   0.513  0.9655 -0.3762 -0.0472
   59MOL    H7618752   2.942   0.040   0.537 -2.7969  0.6194 -0.2156
   59MOL    H7718753   3.202   8.422   0.201  0.1841 -1.3239  0.7316
   59MOL    H7818754   3.002   0.019   0.044  0.4923 -0.4318 -0.9199
   59MOL    H7918755   2.776   0.050   0.139  1.0891  0.5847 -0.9595
   59MOL    H8018756   2.741   0.286   0.413  1.8055 -2.0600  0.6756
   59MOL    H8118757   2.608   0.237   0.310  1.7164 -1.8462 -1.5050
   59MOL    C8218758   2.564   0.255   0.519  0.1569 -0.3105  1.2074
   59MOL    C8318759   2.615   0.232   0.659  0.4890 -0.7714 -0.0596
   59MOL    C8418760   2.751   0.236   0.690  0.0096  0.2999  0.4107
   59MOL    C8518761   2.802   0.221   0.821 -0.5998 -0.1445  0.3669
   59MOL   Cl8618762   2.971   0.223   0.841  0.3336  0.5619  0.5039
   59MOL    C8718763   2.716   0.222   0.927 -0.3048 -0.0783  0.2815
   59MOL    C8818764   2.578   0.203   0.903  0.5348 -0.5013  0.2070
   59MOL    C8918765   2.529   0.208   0.770  0.5494  0.1268 -0.2845
   59MOL    C9018766   2.529   0.412   0.504  0.4056  1.3401  0.1568
   59MOL    H9118767   2.473   0.196   0.508 -0.6699  1.4399 -1.6853
   59MOL    H9218768   2.819   0.256   0.609 -1.6884 -0.1547 -1.1778
   59MOL    H9318769   2.761   0.215   1.025  0.6660 -0.1062 -0.1661
   59MOL    H9418770   2.510   0.175   0.982  0.7304  0.3342  0.6757
   59MOL    H9518771   2.425   0.180   0.761  0.3050  0.0427  2.3546
   59MOL    H9618772   2.606   0.460   0.565  0.5494  2.3372 -0.7849
   59MOL    H9718773   2.538   0.453   0.403  0.9398  0.5364 -0.1248
   59MOL    C9818774   2.388   0.455   0.554  0.0333 -0.2239 -0.5342
   59MOL    C9918775   2.391   0.606   0.570 -0.3727  0.9030  0.1469
   59MOL   C10018776   2.380   0.654   0.699 -0.1744 -0.1368 -0.0019
   59MOL   C10118777   2.372   0.794   0.725 -0.5540 -0.4478  0.0956
   59MOL  Cl10218778   2.365   0.857   0.889 -0.0522  0.4851 -0.0661
   59MOL   C10318779   2.386   0.879   0.615  0.7637 -0.1482  0.0373
   59MOL   C10418780   2.408   0.824   0.488 -0.1726  0.3872 -0.3917
   59MOL   C10518781   2.411   0.688   0.463  0.6207  0.2702 -0.0635
   59MOL   C10618782   2.274   0.419   0.463  1.1984 -0.0538 -0.9646
   59MOL   H10718783   2.378   0.405   0.650  0.7551 -0.3357 -0.5164
   59MOL   H10818784   2.368   0.583   0.779 -0.8285 -2.4272 -2.0629
   59MOL   H10918785   2.381   0.986   0.631 -0.6917  0.1944 -2.4947
   59MOL   H11018786   2.424   0.895   0.408  0.5879 -0.9189 -1.4117
   59MOL   H11118787   2.425   0.647   0.364 -0.2033 -2.6641  1.0060
   59MOL   H11218788   2.297   0.452   0.362  0.5721 -0.6900 -1.3180
   59MOL   H11318789   2.274   0.311   0.457 -1.2266 -0.3813  2.8568
   59MOL   C11418790   2.140   0.482   0.505  0.1720  0.1161 -0.2508
   59MOL   C11518791   2.036   0.476   0.394  0.1940  0.3500 -0.5516
   59MOL   C11618792   1.959   0.584   0.346 -0.1508 -0.3056  0.3187
   59MOL   C11718793   1.868   0.568   0.241  0.3585  0.4239 -0.2045
   59MOL  Cl11818794   1.771   0.700   0.197  0.2202 -0.2850 -0.1023
   59MOL   C11918795   1.848   0.441   0.180 -1.0497 -0.2118  0.5545
   59MOL   C12018796   1.913   0.329   0.236 -0.2410  0.2704  0.5326
   59MOL   C12118797   2.006   0.348   0.336 -0.2719 -0.4914 -0.4642
   59MOL   C12218798   2.074   0.403   0.631 -0.5999 -0.1118  0.1621
   59MOL   H12318799   2.154   0.584   0.540 -2.3311 -0.0312  1.3283
   59MOL   H12418800   1.974   0.682   0.387  1.8108 -1.2786  2.0082
   59MOL   H12518801   1.773   0.427   0.104 -1.7537  3.9701  0.3490
   59MOL   H12618802   1.891   0.227   0.210 -0.6435  0.7121 -0.9464
   59MOL   H12718803   2.062   0.258   0.360 -0.0899 -0.2015  0.2086
   59MOL   H12818804   2.095   0.296   0.619 -0.2421  0.0534 -0.7342
   59MOL   H12918805   2.132   0.437   0.717 -0.2552 -0.0241 -0.1030
   59MOL   C13018806   1.927   0.413   0.661 -0.5283 -0.2579  0.9180
   59MOL   C13118807   1.877   0.311   0.757 -0.4739  0.8153  0.0586
   59MOL   C13218808   1.939   0.295   0.882 -0.1032 -0.6813  0.2121
   59MOL   C13318809   1.906   0.190   0.974 -0.0197 -0.1399  0.0278
   59MOL  Cl13418810   1.999   0.151   1.119  0.1289  0.4149  0.2392
   59MOL   C13518811   1.801   0.102   0.947 -0.3127 -0.1020  0.0345
   59MOL   C13618812   1.734   0.123   0.820  0.3856  0.8499  0.4081
   59MOL   C13718813   1.776   0.221   0.725  0.4158 -0.1060 -0.6278
   59MOL   C13818814   1.889   0.561   0.694 -0.3796 -0.4521  0.5351
   59MOL   H13918815   1.884   0.374   0.569  0.7337  1.0520 -0.2594
   59MOL   H14018816   2.025   0.353   0.914  0.8525 -1.9017 -0.0960
   59MOL   H14118817   1.775   0.017   1.008 -0.2027 -0.6152 -0.6209
   59MOL   H14218818   1.657   0.053   0.791 -0.3723  1.8847 -0.1229
   59MOL   H14318819   1.711   0.233   0.639  1.5767  0.5667 -1.4265
   59MOL   H14418820   1.929   0.599   0.788 -1.8406  0.4227  0.8138
   59MOL   H14518821   1.944   0.621   0.621 -0.6900 -1.3597 -0.4497
   59MOL   C14618822   1.738   0.601   0.675 -0.1570 -0.3600 -0.4807
   59MOL   C14718823   1.713   0.748   0.711 -0.1260 -0.2159 -0.9238
   59MOL   C14818824   1.754   0.856   0.624  0.2965  1.3200  0.6024
   59MOL   C14918825   1.751   0.983   0.668 -0.4632  0.1244 -0.4783
   59MOL  Cl15018826   1.805   1.103   0.560 -0.2837 -0.1835  0.2166
   59MOL   C15118827   1.695   1.013   0.797 -0.1460 -0.3190  0.4841
   59MOL   C15218828   1.640   0.909   0.879 -0.2569 -0.3839  0.3250
   59MOL   C15318829   1.649   0.775   0.830 -0.1409 -0.2543  0.4507
   59MOL   C15418830   1.666   0.564   0.544  0.7213 -0.0863 -0.1430
   59MOL   H15518831   1.689   0.534   0.746  1.4236 -0.7404  0.2887
   59MOL   H15618832   1.791   0.831   0.525  1.0694  0.1584  1.1686
   59MOL   H15718833   1.692   1.115   0.831 -0.0351  0.3933 -1.5993
   59MOL   H15818834   1.596   0.941   0.972  1.0187  2.0205  0.1318
   59MOL   H15918835   1.623   0.684   0.882 -1.8428  0.4137  0.8306
   59MOL   H16018836   1.709   0.620   0.462  0.3381  1.6769  0.8334
   59MOL   H16118837   1.697   0.464   0.514  0.3847  0.1740 -1.3594
   59MOL   C16218838   1.514   0.571   0.535  0.4248  0.2879 -0.2650
   59MOL   C16318839   1.473   0.528   0.393  0.1126  0.2286 -0.6996
   59MOL   C16418840   1.407   0.625   0.311  0.5932  0.4790 -0.4188
   59MOL   C16518841   1.378   0.592   0.176 -0.3564  0.1128 -0.1543
   59MOL  Cl16618842   1.317   0.711   0.062 -0.1257 -0.3251 -0.3960
   59MOL   C16718843   1.405   0.461   0.132  0.1100 -0.2401 -0.3152
   59MOL   C16818844   1.450   0.359   0.218  0.5705 -0.0807 -0.5217
   59MOL   C16918845   1.491   0.396   0.348  0.2659 -0.4310  0.1307
   59MOL   C17018846   1.443   0.488   0.647 -0.2131 -0.3630 -0.0899
   59MOL   H17118847   1.486   0.676   0.549 -1.5952 -0.4874  1.8959
   59MOL   H17218848   1.385   0.725   0.347 -0.0157  0.8081 -1.6858
   59MOL   H17318849   1.399   0.441   0.026  1.3206 -1.4557 -0.1714
   59MOL   H17418850   1.471   0.259   0.183 -1.4832 -0.1674 -1.5509
   59MOL   H17518851   1.522   0.325   0.423 -0.3967 -0.5091  0.3403
   59MOL   H17618852   1.462   0.381   0.636 -0.1878 -0.1998 -1.8610
   59MOL   H17718853   1.484   0.513   0.745  0.6642  1.5588 -0.9260
   59MOL   C17818854   1.288   0.505   0.649  0.8484 -0.0934 -0.5771
   59MOL   C17918855   1.209   0.412   0.561  0.2865 -0.2396 -0.1908
   59MOL   C18018856   1.129   0.453   0.456  0.1676 -0.8223 -0.3467
   59MOL   C18118857   1.064   0.365   0.371 -0.7343 -0.2764 -0.6461
   59MOL  Cl18218858   0.973   0.424   0.239 -0.0050  0.0899  0.0052
   59MOL   C18318859   1.087   0.229   0.390 -0.2644 -0.5022 -0.0808
   59MOL   C18418860   1.160   0.184   0.501  0.6876 -0.4445 -1.0748
   59MOL   C18518861   1.216   0.276   0.587  0.7080  0.2126 -0.7041
   59MOL   C18618862   1.242   0.484   0.794 -0.1248 -0.3992 -0.4693
   59MOL   H18718863   1.265   0.600   0.600  3.4854 -0.2089 -2.1916
   59MOL   H18818864   1.110   0.557   0.433 -1.6642 -1.1236 -0.2651
   59MOL   H18918865   1.034   0.158   0.328 -1.8103  0.5473  0.0215
   59MOL   H19018866   1.161   0.078   0.520 -0.5351 -0.2330  0.2816
   59MOL   H19118867   1.271   0.250   0.676 -1.9468  0.2426  0.9766
   59MOL   H19218868   1.141   0.445   0.799  0.4753 -1.8510  0.5629
   59MOL   H19318869   1.304   0.400   0.825 -1.1095 -1.0431 -0.2329
   59MOL   C19418870   1.260   0.597   0.898 -0.5529 -0.2202  0.0005
   59MOL   C19518871   1.194   0.729   0.859  0.1932 -0.6599  0.2336
   59MOL   C19618872   1.065   0.723   0.802 -0.5502 -0.6625  0.5682
   59MOL   C19718873   1.013   0.846   0.751 -0.2157 -0.9532 -0.4598
   59MOL  Cl19818874   0.851   0.857   0.680  0.0543  0.1043 -0.2155
   59MOL   C19918875   1.077   0.971   0.787  0.3838 -0.5649 -0.4695
   59MOL   C20018876   1.201   0.971   0.853  0.4548 -0.1632  0.4207
   59MOL   C20118877   1.257   0.851   0.896 -0.2992 -0.1939 -0.2219
   59MOL   C20218878   1.240   0.557   1.042  0.9387 -0.0228 -0.6462
   59MOL   H20318879   1.367   0.615   0.889 -0.3339 -0.5215  1.8798
   59MOL   H20418880   1.010   0.631   0.787 -1.9835  0.2399  0.1698
   59MOL   H20518881   1.036   1.069   0.766  0.8762 -0.3539 -0.4604
   59MOL   H20618882   1.244   1.065   0.886 -0.0322  0.7858 -1.5358
   59MOL   H20718883   1.357   0.854   0.936  0.6525 -0.6271 -2.4964
   59MOL   H20818884   1.208   0.649   1.091 -2.3644 -0.9016 -1.0389
   59MOL   H20918885   1.149   0.497   1.053  0.2413  1.0876 -0.2559
   59MOL   C21018886   1.354   0.479   1.116  0.5611  0.0257 -0.3889
   59MOL   C21118887   1.474   0.562   1.152  0.2084  0.0256 -0.0497
   59MOL   C21218888   1.475   0.678   1.230  0.2951 -0.7429  0.5841
   59MOL   C21318889   1.596   0.748   1.258 -0.1672  0.4977 -0.2363
   59MOL  Cl21418890   1.585   0.899   1.340  0.0565  0.4589  0.2004
   59MOL   C21518891   1.720   0.687   1.223  0.6992  0.2191 -0.3074
   59MOL   C21618892   1.722   0.579   1.131  0.3067  0.5775  0.1090
   59MOL   C21718893   1.600   0.511   1.106  0.3751 -0.0330 -1.0722
   59MOL   C21818894   1.292   0.412   1.236  0.1115 -0.4207 -0.2216
   59MOL   H21918895   1.387   0.405   1.042 -1.5146  1.1162 -2.4805
   59MOL   H22018896   1.387   0.721   1.276 -1.0326 -0.7385 -1.8805
   59MOL   H22118897   1.814   0.738   1.237  1.1471 -0.8590  0.6824
   59MOL   H22218898   1.810   0.540   1.082 -0.1005  1.0778 -1.0365
   59MOL   H22318899   1.608   0.417   1.055  0.7536 -1.5281  1.6603
   59MOL   H22418900   1.370   0.396   1.310 -1.4442  2.8575  2.2738
   59MOL   H22518901   1.213   0.468   1.288  0.5269 -0.4189  0.4208
   59MOL   C22618902   1.223   0.278   1.205 -0.9380 -0.3446 -0.3367
   59MOL   C22718903   1.316   0.177   1.138  0.2766  0.6622 -0.5043
   59MOL   C22818904   1.296   0.128   1.007 -0.4437 -0.1896 -0.0405
   59MOL   C22918905   1.385   0.035   0.952  0.8931  1.0241  0.7544
   59MOL  Cl23018906   1.349   8.416   0.798 -0.1240 -0.0156 -0.3712
   59MOL   C23118907   1.502   8.427   1.020 -0.1964 -0.6010 -0.1884
   59MOL   C23218908   1.519   0.039   1.151  0.3515 -0.2499  0.4397
   59MOL   C23318909   1.427   0.128   1.213 -0.1307 -0.6727 -0.4805
   59MOL   C23418910   1.138   0.231   1.332 -0.1911  0.2056 -0.2624
   59MOL   H23518911   1.150   0.312   1.132  0.4657  1.3726 -1.0041
   59MOL   H23618912   1.215   0.173   0.953 -1.6380 -5.0197 -2.5783
   59MOL   H23718913   1.564   8.347   0.983 -2.8836 -2.3153 -1.1581
   59MOL   H23818914   1.599   0.004   1.213 -0.5021 -0.0725  1.6485
   59MOL   H23918915   1.446   0.155   1.316 -2.0764  2.7976 -0.9455
   59MOL   H24018916   1.193   0.215   1.424  0.1556  0.4680 -0.4235
   59MOL   H24118917   1.071   0.314   1.355 -0.6224  0.1034 -1.1205
   59MOL   C24218918   1.037   0.116   1.313  0.1230 -0.0949 -0.3697
   59MOL   C24318919   1.108   8.412   1.330  0.5698 -0.8541 -1.0401
   59MOL   C24418920   1.160   8.345   1.213  0.4729  0.6581  0.3681
   59MOL   C24518921   1.236   8.231   1.236 -0.4567  0.8620  0.4604
   59MOL  Cl24618922   1.313   8.151   1.106 -0.1199  0.0225 -0.0784
   59MOL   C24718923   1.262   8.182   1.367 -0.1034 -0.0730 -0.0380
   59MOL   C24818924   1.212   8.246   1.481  0.4906  0.3313 -0.4609
   59MOL   C24918925   1.135   8.363   1.459  0.2479  0.0426  0.2055
   59MOL   C25018926   0.911   0.131   1.408  0.0852 -1.0046  0.2063
   59MOL   H25118927   1.007   0.114   1.208 -0.8033  1.5252 -0.1477
   59MOL   H25218928   1.150   8.389   1.115  1.9027  2.8509  1.1564
   59MOL   H25318929   1.316   8.089   1.379 -0.0001 -0.2252 -1.5470
   59MOL   H25418930   1.244   8.203   1.575 -0.1627  3.0492  1.0378
   59MOL   H25518931   1.118   8.426   1.545 -0.0653  1.0391 -0.5821
   59MOL   H25618932   0.942   0.112   1.511  0.8297  1.4390  0.4571
   59MOL   H25718933   0.865   0.229   1.406 -0.6459 -1.3586 -0.8170
   59MOL   C25818934   0.801   0.036   1.371 -0.2129  0.2220 -0.2284
   59MOL   C25918935   0.712   0.010   1.502 -0.3652  0.1854  0.2657
   59MOL   C26018936   0.607   0.098   1.534 -0.4733 -0.2141  0.2889
   59MOL   C26118937   0.538   0.081   1.654 -0.1186 -1.0192 -0.0027
   59MOL  Cl26218938   0.413   0.194   1.692  0.2281 -0.1165  0.5514
   59MOL   C26318939   0.577   8.416   1.743 -0.7883 -0.0335  0.3747
   59MOL   C26418940   0.681   8.328   1.713 -0.4170  0.0678  0.1690
   59MOL   C26518941   0.750   8.344   1.589  0.3389  0.0172 -0.2482
   59MOL   C26618942   0.718   0.070   1.242 -0.3359 -0.2248 -0.0296
   59MOL   H26718943   0.849   8.374   1.358  1.5199  0.8070  1.6098
   59MOL   H26818944   0.574   0.177   1.469 -0.0652  0.5175  0.9570
   59MOL   H26918945   0.542   8.402   1.844 -1.0340 -4.1268 -0.1845
   59MOL   H27018946   0.701   8.234   1.764 -0.3757 -0.7727 -1.3860
   59MOL   H27118947   0.831   8.276   1.570  2.1986  1.8997  0.7692
   59MOL   H27218948   0.679   0.170   1.258  0.0074 -0.3953  2.0663
   59MOL   H27318949   0.792   0.092   1.165 -2.3181  3.2828 -1.0242
   59MOL   C27418950   0.606   8.402   1.212 -0.2504  0.8043 -0.3375
   59MOL   C27518951   0.478   0.044   1.190 -0.6834 -0.1487  0.4444
   59MOL   C27618952   0.370   0.029   1.276  0.5121 -0.5416 -0.5586
   59MOL   C27718953   0.247   0.093   1.244 -0.3063 -0.0609 -0.2219
   59MOL  Cl27818954   0.117   0.051   1.354 -0.0094  0.2669 -0.2801
   59MOL   C27918955   0.229   0.180   1.133 -0.3265  0.7157 -0.0096
   59MOL   C28018956   0.343   0.204   1.052 -0.1155 -0.4626  0.6230
   59MOL   C28118957   0.460   0.135   1.078  0.0590  0.3834 -0.5748
   59MOL   C28218958   0.627   8.303   1.088 -0.6932  0.6074  0.3843
   59MOL   H28318959   0.584   8.343   1.300 -2.0286  0.5773 -0.9092
   59MOL   H28418960   0.379   8.410   1.369  1.4222 -1.5370 -1.2163
   59MOL   H28518961   0.130   0.215   1.108 -0.6094 -0.8387 -1.1681
   59MOL   H28618962   0.343   0.260   0.959  0.0312 -2.6397 -0.7284
   59MOL   H28718963   0.537   0.156   1.005  1.5925  2.3039  1.4907
   59MOL   H28818964   0.538   8.242   1.074  0.2165 -0.6923  0.1605
   59MOL   H28918965   0.636   8.376   1.007 -1.4824  0.5320  0.2252
   59MOL   C29018966   0.748   8.225   1.088  0.3868  0.0774  0.3671
   59MOL   C29118967   0.741   8.102   1.180 -0.1621  0.0036  0.5063
   59MOL   C29218968   0.838   8.080   1.280  0.9010  0.1441  0.5062
   59MOL   C29318969   0.846   7.962   1.346 -0.2905  0.4336  0.0377
   59MOL  Cl29418970   0.995   7.928   1.427 -0.0297 -0.6059 -0.2057
   59MOL   C29518971   0.749   7.862   1.320 -0.0564 -0.2195 -0.2884
   59MOL   C29618972   0.630   7.897   1.244  0.7537  0.1615  0.2589
   59MOL   C29718973   0.632   8.011   1.164  0.4262  0.2915 -0.1901
   59MOL   C29818974   0.788   8.176   0.944  0.4880 -0.1289 -0.2247
   59MOL   H29918975   0.823   8.288   1.135 -1.8851  1.7041  1.8922
   59MOL   H30018976   0.922   8.146   1.290  1.6901 -0.9262  1.0933
   59MOL   H30118977   0.748   7.769   1.374  0.0631 -0.7525 -1.1927
   59MOL   H30218978   0.554   7.822   1.229  1.5194 -0.6471  0.3607
   59MOL   H30318979   0.560   8.030   1.086  0.4946 -0.2366 -0.3843
   59MOL   H30418980   0.730   8.086   0.920  0.3334  0.5011 -2.2786
   59MOL   H30518981   0.756   8.249   0.870  1.9576  1.3109  0.5314
   59MOL   C30618982   0.940   8.156   0.930 -0.1506 -0.1371  0.3136
   59MOL   C30718983   0.979   8.046   0.835  0.4536  1.7724 -0.3402
   59MOL   C30818984   1.066   7.943   0.880 -0.9679 -0.0419 -0.5835
   59MOL   C30918985   1.090   7.836   0.792  0.1216 -0.7357  0.3468
   59MOL  Cl31018986   1.210   7.725   0.836 -0.0810  0.1375 -0.1798
   59MOL   C31118987   1.030   7.829   0.666  0.1923 -0.1076 -0.8016
   59MOL   C31218988   0.941   7.925   0.624 -0.0726  0.1265 -0.6184
   59MOL   C31318989   0.918   8.033   0.710 -0.1970  0.1714 -0.1558
   59MOL   C31418990   1.005   8.288   0.891 -0.6917 -0.1995  0.1103
   59MOL   H31518991   0.973   8.123   1.028 -0.8458 -3.7447 -0.6014
   59MOL   H31618992   1.116   7.947   0.976  0.0313  2.1355 -1.1665
   59MOL   H31718993   1.064   7.757   0.592 -3.0047  1.0308 -3.4861
   59MOL   H31818994   0.906   7.922   0.522  0.0403  0.8904 -0.6775
   59MOL   H31918995   0.849   8.110   0.677  0.5399  1.1206  0.4760
   59MOL   H32018996   1.112   8.267   0.903 -0.5888 -0.6828 -1.4447
   59MOL   H32118997   0.981   8.308   0.786  0.5566  0.7830  0.0046
   59MOL   H32218998   0.965   8.368   0.952 -0.1441 -0.7842  1.2450
   60MOL     C118999   3.413   1.594   1.206  0.4746  0.6233 -0.0963
   60MOL     C219000   3.342   1.492   1.291  0.1767 -0.4180  0.7139
   60MOL     C319001   3.210   1.518   1.336  0.3091  0.3163 -0.0920
   60MOL     C419002   3.150   1.429   1.433 -0.0137 -0.6112  0.5206
   60MOL    Cl519003   2.996   1.457   1.498  0.0704  0.1029  0.2886
   60MOL     C619004   3.216   1.314   1.469 -0.3390 -0.6061  0.1307
   60MOL     C719005   3.343   1.281   1.414  0.4216 -0.5216 -0.1132
   60MOL     C819006   3.401   1.372   1.330 -0.0973 -0.5918  0.0684
   60MOL     C919007   3.429   1.553   1.058  0.2699 -0.4978  0.1595
   60MOL    H1019008   3.519   1.601   1.229  1.0838 -2.4879 -1.6131
   60MOL    H1119009   3.155   1.599   1.291 -2.0790 -1.1683  0.0367
   60MOL    H1219010   3.171   1.246   1.540 -0.3671  0.7126  1.3949
   60MOL    H1319011   3.384   1.183   1.430  1.7451 -0.0849 -0.7224
   60MOL    H1419012   3.504   1.351   1.303  0.2527  1.5465 -0.3131
   60MOL    H1519013   3.491   1.466   1.038  1.7333  0.8257 -1.2771
   60MOL    H1619014   3.327   1.531   1.028 -0.0284 -1.8765  2.0711
   60MOL    H1719015   3.364   1.691   1.209 -0.0424  0.4970 -2.7403
   60MOL    C1819016   3.489   1.671   0.963 -0.8279  0.2314 -0.5736
   60MOL    C1919017   3.627   1.710   1.007  0.4373 -0.0599 -0.6499
   60MOL    C2019018   3.648   1.831   1.075  0.0301  0.5186 -0.5623
   60MOL    C2119019   3.778   1.875   1.106 -0.5310 -0.1568  1.3218
   60MOL   Cl2219020   3.793   2.030   1.181  0.1950 -0.0625 -0.1976
   60MOL    C2319021   3.887   1.790   1.086  0.4168 -0.0759  0.3454
   60MOL    C2419022   3.873   1.667   1.021  0.3639 -0.3835  0.0492
   60MOL    C2519023   3.743   1.632   0.982 -0.8471  0.3199 -0.5940
   60MOL    C2619024   3.501   1.649   0.810 -0.1143  0.6336  0.1146
   60MOL    H2719025   3.425   1.759   0.977  0.1105  1.3159 -2.8599
   60MOL    H2819026   3.563   1.890   1.105  0.0365 -0.5478  1.6871
   60MOL    H2919027   3.985   1.825   1.115  1.2537 -0.5551 -1.8396
   60MOL    H3019028   3.963   1.608   1.006  0.3497 -0.7869  1.5609
   60MOL    H3119029   3.729   1.542   0.923  0.5306 -1.1179  1.2137
   60MOL    H3219030   3.541   1.742   0.772 -1.1281  0.8769 -0.3853
   60MOL    H3319031   3.575   1.571   0.790  0.1822  1.3496 -1.6881
   60MOL    C3419032   3.376   1.599   0.735  0.5590  0.1642 -0.1803
   60MOL    C3519033   3.285   1.714   0.694  0.1788 -0.3717 -0.0660
   60MOL    C3619034   3.277   1.753   0.557 -0.1304 -0.2952  0.6347
   60MOL    C3719035   3.197   1.865   0.519  0.0355  0.3999 -0.0922
   60MOL   Cl3819036   3.187   1.914   0.352  0.0918 -0.4016  0.0943
   60MOL    C3919037   3.113   1.921   0.615  0.1571 -0.6429 -0.1818
   60MOL    C4019038   3.118   1.886   0.750  0.0040  0.4456  0.0315
   60MOL    C4119039   3.203   1.784   0.788 -0.2599  0.5978  0.4227
   60MOL    C4219040   3.394   1.503   0.618 -0.4088  0.1348  0.4426
   60MOL    H4319041   3.314   1.541   0.804  1.1205  1.9515  1.8855
   60MOL    H4419042   3.332   1.700   0.481  0.0284 -1.3716  1.4891
   60MOL    H4519043   3.046   1.997   0.578 -0.5346 -0.2753  1.7548
   60MOL    H4619044   3.055   1.936   0.822 -0.4963  1.0347 -0.8096
   60MOL    H4719045   3.211   1.744   0.888 -1.5606 -1.0782 -0.1223
   60MOL    H4819046   3.313   1.489   0.547  1.0285 -1.6020 -0.8985
   60MOL    H4919047   3.483   1.541   0.568 -0.9512 -1.3935 -1.7424
   60MOL    C5019048   3.438   1.361   0.658  0.2960 -0.0138 -0.5431
   60MOL    C5119049   3.323   1.283   0.717  0.1580  0.0830 -0.2374
   60MOL    C5219050   3.215   1.245   0.632  0.4699 -0.3687 -0.4110
   60MOL    C5319051   3.110   1.167   0.684 -0.1925 -0.2973  0.6014
   60MOL   Cl5419052   2.990   1.106   0.577  0.0959  0.3975  0.1848
   60MOL    C5519053   3.112   1.133   0.820  0.2195  0.4796  0.3951
   60MOL    C5619054   3.217   1.169   0.903 -0.6310  0.3910  0.3612
   60MOL    C5719055   3.321   1.252   0.853 -0.0756  0.5677 -0.2283
   60MOL    C5819056   3.487   1.278   0.542 -0.2220 -0.7373  0.0244
   60MOL    H5919057   3.521   1.365   0.729 -0.1551  1.6533 -0.0823
   60MOL    H6019058   3.201   1.266   0.527 -2.7951  2.4858  0.4923
   60MOL    H6119059   3.018   1.092   0.853  0.4149  0.8563  1.4593
   60MOL    H6219060   3.215   1.139   1.007 -0.9324  0.9352  0.5144
   60MOL    H6319061   3.398   1.292   0.918 -0.1671 -2.1398  1.6092
   60MOL    H6419062   3.498   1.172   0.567  1.5663 -0.8163 -0.9803
   60MOL    H6519063   3.414   1.281   0.461 -2.2618  1.2526  1.8873
   60MOL    C6619064   3.615   1.332   0.474  0.4876 -0.0678 -0.8402
   60MOL    C6719065   3.724   1.356   0.568  0.4213 -0.1455 -0.1416
   60MOL    C6819066   3.791   1.483   0.571 -0.0613 -0.3745 -0.0394
   60MOL    C6919067   3.890   1.500   0.668 -0.1817 -0.6077 -0.1702
   60MOL   Cl7019068   3.948   1.658   0.703  0.1553 -0.1547 -0.4079
   60MOL    C7119069   3.932   1.403   0.751  1.0340 -0.2390 -0.2958
   60MOL    C7219070   3.871   1.279   0.745  0.0476  0.5817 -0.4253
   60MOL    C7319071   3.766   1.252   0.653  0.0574 -0.1334 -0.5092
   60MOL    C7419072   3.674   1.244   0.348  0.4012 -0.3216 -0.6376
   60MOL    H7519073   3.581   1.428   0.435  2.2596  0.7023 -0.5258
   60MOL    H7619074   3.764   1.569   0.510 -0.0949  0.8677  1.6785
   60MOL    H7719075   4.008   1.431   0.823 -0.7287 -0.6999  1.8027
   60MOL    H7819076   3.898   1.202   0.816 -0.9745 -0.7157 -1.4018
   60MOL    H7919077   3.724   1.153   0.662 -1.0685  0.4356  0.7796
   60MOL    H8019078   3.712   1.147   0.379 -0.0784  0.3679  2.2978
   60MOL    H8119079   3.588   1.221   0.286  0.1457 -2.2895  0.4118
   60MOL    C8219080   3.795   1.306   0.266  0.3196  0.4541 -0.3240
   60MOL    C8319081   3.867   1.210   0.177  0.3123  0.5926  0.1532
   60MOL    C8419082   3.812   1.162   0.055 -0.5585  0.2873  1.1707
   60MOL    C8519083   3.879   1.073   8.412 -0.0625  0.0770 -0.1513
   60MOL   Cl8619084   3.799   1.017   8.266  0.4304 -0.3793 -0.0544
   60MOL    C8719085   4.007   1.042   8.427  0.3894  0.0260  0.0999
   60MOL    C8819086   4.066   1.097   0.106 -0.3948  0.5386  0.3786
   60MOL    C8919087   3.996   1.166   0.200 -0.6931 -0.2019 -0.1668
   60MOL    C9019088   3.751   1.439   0.190  0.9464  0.1150 -0.3230
   60MOL    H9119089   3.867   1.338   0.341 -0.2637  0.6205  0.1748
   60MOL    H9219090   3.709   1.168   0.023 -1.0966 -1.1817  2.5440
   60MOL    H9319091   4.058   0.983   8.352  1.5374 -0.7734  1.4898
   60MOL    H9419092   4.171   1.074   0.114 -0.8312 -1.1055  1.6458
   60MOL    H9519093   4.042   1.210   0.288  0.4189 -0.0638 -0.8075
   60MOL    H9619094   3.699   1.404   0.101  0.0294 -0.7086  0.5200
   60MOL    H9719095   3.693   1.509   0.250 -0.8021 -1.1709 -0.4624
   60MOL    C9819096   3.872   1.527   0.153 -0.3562  0.1764 -0.0337
   60MOL    C9919097   3.842   1.626   0.036  0.2823 -0.0649  0.3253
   60MOL   C10019098   3.762   1.740   0.065  0.1277 -0.7600 -0.2626
   60MOL   C10119099   3.731   1.826   8.397  0.6741 -0.3431  0.1219
   60MOL  Cl10219100   3.630   1.961   8.423 -0.4232 -0.0410  0.3984
   60MOL   C10319101   3.781   1.808   8.266 -0.0386  0.1333 -0.7952
   60MOL   C10419102   3.843   1.687   8.232 -0.3147  0.2765  0.2421
   60MOL   C10519103   3.882   1.598   8.338 -0.2711 -1.0404 -0.2154
   60MOL   C10619104   3.947   1.602   0.262  0.0222 -0.1246 -0.0390
   60MOL   H10719105   3.944   1.458   0.110  0.3860  1.1216 -0.3436
   60MOL   H10819106   3.724   1.763   0.164  0.8345  0.5717 -0.2843
   60MOL   H10919107   3.750   1.873   8.186  0.2032 -2.0684 -2.7095
   60MOL   H11019108   3.864   1.660   8.130 -0.1945  1.5458 -0.0662
   60MOL   H11119109   3.943   1.516   8.305  0.5851  0.1828 -1.7376
   60MOL   H11219110   3.892   1.689   0.299  0.0041  0.5431 -1.5748
   60MOL   H11319111   3.963   1.523   0.335 -0.3143 -2.0492 -1.9877
   60MOL   C11419112   4.079   1.655   0.217 -0.8115  0.0056 -0.6619
   60MOL   C11519113   4.139   1.725   0.335 -0.7538 -0.5640  0.0381
   60MOL   C11619114   4.198   1.654   0.446 -0.3386 -0.7256  0.1526
   60MOL   C11719115   4.242   1.716   0.563 -0.2645 -0.4152  0.1587
   60MOL  Cl11819116   4.330   1.622   0.680 -0.1472 -0.3932 -0.1450
   60MOL   C11919117   4.233   1.857   0.578 -0.4054  0.1776 -0.3526
   60MOL   C12019118   4.182   1.927   0.466 -0.0616 -0.0419  0.1452
   60MOL   C12119119   4.140   1.868   0.345  0.1030 -0.4746  0.0530
   60MOL   C12219120   4.165   1.545   0.163  0.4317 -0.2812  0.0004
   60MOL   H12319121   4.065   1.726   0.135 -2.7348 -0.3922 -0.6916
   60MOL   H12419122   4.205   1.546   0.441  0.6486 -0.6221 -1.0255
   60MOL   H12519123   4.271   1.912   0.663  1.8946 -1.4167 -0.2828
   60MOL   H12619124   4.171   2.034   0.468 -0.6282 -0.0475 -1.7278
   60MOL   H12719125   4.101   1.926   0.264  1.6732 -0.2027 -0.5283
   60MOL   H12819126   4.142   1.462   0.229  0.3421  0.6739  1.1832
   60MOL   H12919127   4.136   1.517   0.061  1.9772  1.0485 -0.8391
   60MOL   C13019128   4.318   1.555   0.156 -0.0249 -0.4063 -0.2556
   60MOL   C13119129   4.363   1.419   0.103  0.0070  0.5145 -0.0387
   60MOL   C13219130   4.399   1.321   0.203 -0.8842  0.1592 -0.7704
   60MOL   C13319131   4.432   1.191   0.162  0.2518 -0.0858  0.1225
   60MOL  Cl13419132   4.477   1.076   0.283  0.0658 -0.1327  0.0979
   60MOL   C13519133   4.432   1.159   0.022  0.1159 -0.2709  0.5444
   60MOL   C13619134   4.394   1.255   8.361 -0.1766 -0.1553 -0.1533
   60MOL   C13719135   4.362   1.386   8.400 -0.3468 -0.7622 -0.3289
   60MOL   C13819136   4.358   1.664   0.058 -0.1478 -0.1938 -0.1683
   60MOL   H13919137   4.373   1.571   0.249 -0.3110  1.2714 -0.3607
   60MOL   H14019138   4.392   1.344   0.308  2.1219 -0.2596 -0.4567
   60MOL   H14119139   4.480   1.069   8.422  2.4871  0.6507  1.3313
   60MOL   H14219140   4.403   1.233   8.256 -0.7623  2.1325 -0.7232
   60MOL   H14319141   4.326   1.451   8.322  2.1625  0.3716 -0.5755
   60MOL   H14419142   4.346   1.637   8.389 -2.8953 -0.5824  0.2145
   60MOL   H14519143   4.279   1.738   0.074 -2.4065 -1.7701 -3.4708
   60MOL   C14619144   4.498   1.734   0.059 -0.2046  0.2603 -0.8012
   60MOL   C14719145   4.508   1.829   0.173  0.0383  0.4463 -0.0765
   60MOL   C14819146   4.439   1.951   0.160 -0.3681  0.0527 -0.5988
   60MOL   C14919147   4.440   2.040   0.267 -0.2921 -0.1093  0.6995
   60MOL  Cl15019148   4.350   2.187   0.274 -0.2516  0.3032 -0.0628
   60MOL   C15119149   4.522   2.013   0.380  0.1051 -0.2337 -0.4399
   60MOL   C15219150   4.574   1.884   0.400  0.7271  0.0993  0.9387
   60MOL   C15319151   4.560   1.788   0.295  0.2696 -0.2929 -0.1468
   60MOL   C15419152   4.615   1.635   0.033  0.3960 -1.2706  0.9175
   60MOL   H15519153   4.496   1.806   8.412 -0.0165  0.7413 -0.3922
   60MOL   H15619154   4.382   1.980   0.073 -0.9378 -0.6481 -0.4552
   60MOL   H15719155   4.531   2.077   0.467  0.1514 -0.0861 -0.5543
   60MOL   H15819156   4.635   1.863   0.487  0.1086  0.4310  1.4546
   60MOL   H15919157   4.585   1.684   0.305 -1.4570 -0.5560  2.0509
   60MOL   H16019158   4.632   1.575   0.122  2.7873  0.8001  1.9324
   60MOL   H16119159   4.593   1.562   8.390  2.2270 -1.1905  0.2872
   60MOL   C16219160   4.750   1.699   8.417  0.3895  0.2462  0.0781
   60MOL   C16319161   4.858   1.613   0.027 -0.1885 -0.5567 -0.2026
   60MOL   C16419162   4.885   1.493   8.394 -0.5251  0.0831 -0.1147
   60MOL   C16519163   5.009   1.429   8.416 -0.1143  0.8992  0.3039
   60MOL  Cl16619164   5.049   1.286   8.321 -0.3107 -0.0905  0.1474
   60MOL   C16719165   5.102   1.469   0.081  0.4294 -0.0338 -0.4161
   60MOL   C16819166   5.063   1.583   0.157 -0.0067  0.0304  0.0781
   60MOL   C16919167   4.943   1.659   0.128  0.5141 -0.0768 -0.3718
   60MOL   C17019168   4.753   1.726   8.264  0.0130  0.0718 -0.3026
   60MOL   H17119169   4.756   1.797   0.030 -1.2101  1.2872 -1.7413
   60MOL   H17219170   4.816   1.465   8.316 -1.2320  2.4515 -0.3909
   60MOL   H17319171   5.194   1.416   0.098 -0.0573 -0.7526  0.0412
   60MOL   H17419172   5.124   1.616   0.239 -0.8115 -0.7192  0.9986
   60MOL   H17519173   4.932   1.749   0.187 -0.1235 -0.1066 -0.4479
   60MOL   H17619174   4.717   1.639   8.208 -0.6511  1.2446 -1.7125
   60MOL   H17719175   4.669   1.793   8.245 -0.1356 -0.5217 -1.8533
   60MOL   C17819176   4.886   1.774   8.204 -0.0883 -0.1959  0.2503
   60MOL   C17919177   4.883   1.745   8.048  0.0812 -0.3735 -0.1456
   60MOL   C18019178   4.983   1.658   7.994  0.4326 -0.2014  0.6343
   60MOL   C18119179   4.990   1.641   7.854  0.1319 -0.4053  1.0712
   60MOL  Cl18219180   5.129   1.554   7.790  0.3317 -0.4786  0.1704
   60MOL   C18319181   4.900   1.706   7.764  0.4843 -0.3936 -0.4010
   60MOL   C18419182   4.807   1.797   7.821  0.2028  0.3011 -0.3845
   60MOL   C18519183   4.793   1.815   7.960 -0.0008 -0.1359 -0.6115
   60MOL   C18619184   4.924   1.921   8.239 -0.6835  0.1602  0.1216
   60MOL   H18719185   4.960   1.708   8.250 -0.2143 -1.2325 -0.9945
   60MOL   H18819186   5.052   1.607   8.060 -0.8106  0.1183  2.2044
   60MOL   H18919187   4.908   1.688   7.658  1.4832  0.4211 -0.4805
   60MOL   H19019188   4.747   1.859   7.755 -0.1676 -1.8840 -2.1719
   60MOL   H19119189   4.719   1.884   7.999 -1.1233 -2.2096  1.0117
   60MOL   H19219190   4.876   1.981   8.161 -2.9607  0.4450  1.7088
   60MOL   H19319191   4.865   1.943   8.327 -0.9392  2.5663 -0.5925
   60MOL   C19419192   5.076   1.958   8.273 -0.0016  0.4835 -0.2264
   60MOL   C19519193   5.169   1.892   8.174  0.4858  0.1889 -0.7250
   60MOL   C19619194   5.264   1.791   8.214 -0.1875  0.0467 -0.3391
   60MOL   C19719195   5.356   1.740   8.115  0.0717 -0.6362 -0.5830
   60MOL  Cl19819196   5.473   1.630   8.161 -0.1201 -0.3067  0.0715
   60MOL   C19919197   5.339   1.773   7.984  0.6683 -0.1370  0.9257
   60MOL   C20019198   5.237   1.859   7.947  0.0129  0.3391  0.5981
   60MOL   C20119199   5.153   1.925   8.037 -0.5205 -0.5152  0.2986
   60MOL   C20219200   5.107   2.106   8.291 -0.6001  0.4518 -0.1662
   60MOL   H20319201   5.092   1.905   8.367 -1.3063  0.2249 -0.1413
   60MOL   H20419202   5.272   1.746   8.312 -0.0202  1.6446  0.3880
   60MOL   H20519203   5.396   1.723   7.907  0.1170 -1.3717  1.2966
   60MOL   H20619204   5.205   1.864   7.844 -0.8993  1.7832  0.9430
   60MOL   H20719205   5.077   1.993   8.004 -2.1743 -0.6509  3.6294
   60MOL   H20819206   5.205   2.117   8.338 -1.2287  3.7195  0.4856
   60MOL   H20919207   5.107   2.146   8.190 -0.9908 -0.1041 -0.3907
   60MOL   C21019208   5.014   2.189   8.385  0.6903 -0.5675 -0.6540
   60MOL   C21119209   5.055   2.180   0.090 -0.6304 -0.3112 -0.1032
   60MOL   C21219210   5.005   2.075   0.167  0.1007  0.3827 -0.5657
   60MOL   C21319211   5.052   2.059   0.295  0.0982 -0.0299  0.0959
   60MOL  Cl21419212   5.003   1.928   0.394 -0.3486 -0.0311 -0.1330
   60MOL   C21519213   5.133   2.155   0.359 -0.1405 -0.4091 -0.3846
   60MOL   C21619214   5.174   2.268   0.286 -0.4804 -0.2010  0.3040
   60MOL   C21719215   5.147   2.276   0.148  0.0022 -0.6365  0.2519
   60MOL   C21819216   5.008   2.340   8.343 -0.0776 -0.4958 -0.3991
   60MOL   H21919217   4.911   2.152   8.379 -0.0045  1.1721  0.5064
   60MOL   H22019218   4.938   1.999   0.130  0.6370 -0.1305 -0.4875
   60MOL   H22119219   5.166   2.160   0.462 -0.6561 -1.5804 -0.1578
   60MOL   H22219220   5.235   2.345   0.329  1.1023 -1.3832  0.1991
   60MOL   H22319221   5.188   2.362   0.098 -1.1753  0.0855  0.4983
   60MOL   H22419222   4.975   2.399   8.429 -1.4089 -0.4134 -0.9641
   60MOL   H22519223   5.112   2.365   8.320  0.8911 -0.5829  3.5601
   60MOL   C22619224   4.915   2.366   8.226  0.4046  0.3919  0.0972
   60MOL   C22719225   4.771   2.346   8.264  0.9517 -0.3717  0.2261
   60MOL   C22819226   4.702   2.229   8.217 -0.1096 -0.2396  0.3048
   60MOL   C22919227   4.571   2.202   8.254  0.2925 -0.1440 -0.4223
   60MOL  Cl23019228   4.479   2.072   8.189 -0.3013 -0.1425 -0.2004
   60MOL   C23119229   4.508   2.294   8.336 -0.2896  0.2846 -0.1373
   60MOL   C23219230   4.570   2.416   8.378 -0.6231  0.2346 -0.2828
   60MOL   C23319231   4.707   2.438   8.344  0.0801  0.0442 -0.0699
   60MOL   C23419232   4.932   2.495   8.147 -0.6704 -0.1162  0.0942
   60MOL   H23519233   4.938   2.283   8.159 -0.3250  0.4892 -0.2698
   60MOL   H23619234   4.752   2.155   8.157  1.3244 -1.4617  2.9377
   60MOL   H23719235   4.407   2.282   8.374  0.1792  1.0099  1.3697
   60MOL   H23819236   4.532   2.489   0.013 -0.0501  0.4370 -0.1735
   60MOL   H23919237   4.746   2.531   8.384 -0.9087  1.1334 -1.5967
   60MOL   H24019238   4.846   2.500   8.080 -0.6979 -0.5210  0.1037
   60MOL   H24119239   4.914   2.576   8.218 -2.4465  0.3083 -0.7930
   60MOL   C24219240   5.062   2.506   8.067 -0.3833 -0.0385 -0.4526
   60MOL   C24319241   5.094   2.383   7.981  0.2272  0.0821 -0.3105
   60MOL   C24419242   5.005   2.339   7.882 -0.2249 -0.3816 -0.0612
   60MOL   C24519243   5.037   2.226   7.804 -0.2691  0.0974 -0.3147
   60MOL  Cl24619244   4.934   2.141   7.695 -0.4171  0.4656 -0.1156
   60MOL   C24719245   5.165   2.166   7.821 -0.1113  0.4621  0.6042
   60MOL   C24819246   5.261   2.210   7.918  0.7364  0.3103  0.6505
   60MOL   C24919247   5.221   2.317   7.999 -0.7655 -0.0546 -0.3672
   60MOL   C25019248   5.066   2.642   7.994 -0.0418 -0.3399  0.1048
   60MOL   H25119249   5.144   2.527   8.136 -1.1822  4.1668 -0.6070
   60MOL   H25219250   4.901   2.366   7.888  0.0826  1.0012 -0.5940
   60MOL   H25319251   5.190   2.079   7.763 -0.9383 -0.7348  2.0191
   60MOL   H25419252   5.358   2.164   7.931  0.1210 -0.6781  1.8548
   60MOL   H25519253   5.289   2.347   8.077  0.1456 -1.1079 -0.7463
   60MOL   H25619254   4.986   2.637   7.921 -1.6861 -0.7601  1.8798
   60MOL   H25719255   5.026   2.719   8.060 -1.7318 -0.9686 -0.1637
   60MOL   C25819256   5.196   2.680   7.923 -0.0821  0.3149 -0.1205
   60MOL   C25919257   5.197   2.643   7.776  0.1244  0.1756  0.7739
   60MOL   C26019258   5.269   2.528   7.732 -0.1927 -0.1173 -0.4789
   60MOL   C26119259   5.277   2.501   7.595  0.1123 -0.0178  0.0061
   60MOL  Cl26219260   5.377   2.363   7.555  0.1041  0.2752  0.2606
   60MOL   C26319261   5.225   2.587   7.498  0.3552 -0.4225  0.5343
   60MOL   C26419262   5.140   2.694   7.541  0.3043 -0.2801  0.3270
   60MOL   C26519263   5.128   2.721   7.679 -0.1627  0.5627  0.5918
   60MOL   C26619264   5.235   2.831   7.947 -0.6453  0.1390  0.0087
   60MOL   H26719265   5.289   2.636   7.958  0.1369  0.4065 -0.5806
   60MOL   H26819266   5.320   2.462   7.801 -0.6712  0.7931  0.7575
   60MOL   H26919267   5.230   2.568   7.392  1.3699 -0.3152  0.5644
   60MOL   H27019268   5.090   2.759   7.470  0.9075  1.5074  1.4958
   60MOL   H27119269   5.068   2.804   7.713 -1.7335 -0.6102  0.7328
   60MOL   H27219270   5.300   2.849   7.862  0.9179 -2.9663  0.4869
   60MOL   H27319271   5.145   2.892   7.936 -1.7565 -1.2594  1.0510
   60MOL   C27419272   5.317   2.860   8.077  0.7458  0.0622  0.0668
   60MOL   C27519273   5.464   2.825   8.053 -0.3615  0.3494 -0.0055
   60MOL   C27619274   5.547   2.891   7.964 -0.0846  0.7894  0.2547
   60MOL   C27719275   5.680   2.839   7.933  0.5260  0.2182 -0.4200
   60MOL  Cl27819276   5.782   2.927   7.824  0.0361 -0.0262 -0.1517
   60MOL   C27919277   5.725   2.720   7.991 -0.1477  0.2781 -0.2628
   60MOL   C28019278   5.643   2.659   8.084 -0.7725  0.1090 -0.4099
   60MOL   C28119279   5.515   2.707   8.110  0.3659  0.3745  0.1163
   60MOL   C28219280   5.304   3.001   8.139  0.0611 -0.2537 -0.4307
   60MOL   H28319281   5.275   2.785   8.144 -1.4670 -0.1721 -1.5393
   60MOL   H28419282   5.517   2.984   7.919 -1.3148  0.1790 -0.2295
   60MOL   H28519283   5.820   2.678   7.963 -0.5208  0.5501 -1.9765
   60MOL   H28619284   5.684   2.572   8.133 -2.6428 -0.0292  0.9804
   60MOL   H28719285   5.456   2.646   8.176 -0.8931  2.2702  0.8013
   60MOL   H28819286   5.385   3.023   8.209 -0.3143 -0.7740  0.1718
   60MOL   H28919287   5.313   3.078   8.062  2.3988  0.2168  0.2814
   60MOL   C29019288   5.160   3.032   8.190  0.0451  0.5707 -0.2038
   60MOL   C29119289   5.095   2.934   8.291  0.1119 -0.0892  1.0037
   60MOL   C29219290   5.176   2.856   8.379 -0.2127  0.6802 -0.4852
   60MOL   C29319291   5.122   2.748   0.009  0.4638  0.1858  0.2735
   60MOL  Cl29419292   5.218   2.639   0.099 -0.0251 -0.4688  0.2865
   60MOL   C29519293   4.981   2.727   8.434 -1.0784  0.3129  0.3153
   60MOL   C29619294   4.896   2.805   8.353  0.0088 -1.2145  0.1928
   60MOL   C29719295   4.957   2.909   8.282  0.5458 -0.0868 -0.3341
   60MOL   C29819296   5.148   3.172   8.263 -0.3680 -0.5554  0.3911
   60MOL   H29919297   5.090   3.037   8.107 -0.1899  0.1961 -0.0297
   60MOL   H30019298   5.283   2.873   8.385  0.1019 -1.0970 -0.5675
   60MOL   H30119299   4.940   2.642   0.051 -0.3545  0.2274  0.7526
   60MOL   H30219300   4.789   2.794   8.351 -0.0414 -0.6878 -0.0420
   60MOL   H30319301   4.882   2.964   8.226 -2.0832 -3.7869 -0.6839
   60MOL   H30419302   5.065   3.172   8.334  1.6612  2.0503  2.8656
   60MOL   H30519303   5.231   3.168   8.333  2.0876 -0.6681 -2.4273
   60MOL   C30619304   5.162   3.293   8.173 -0.0568  0.2573 -0.3797
   60MOL   C30719305   5.056   3.306   8.069  0.5397 -0.4866 -0.5598
   60MOL   C30819306   4.919   3.296   8.100  0.6644 -0.8531  0.1848
   60MOL   C30919307   4.821   3.317   8.000 -0.0158 -0.3774 -0.5221
   60MOL  Cl31019308   4.654   3.316   8.034  0.2128 -0.1160 -0.3265
   60MOL   C31119309   4.853   3.326   7.864 -0.6082 -0.0318  0.4883
   60MOL   C31219310   4.989   3.329   7.828 -0.3806 -0.1467 -0.1256
   60MOL   C31319311   5.089   3.321   7.928  0.3729 -0.1488 -0.2618
   60MOL   C31419312   5.161   3.422   8.262 -0.5720 -0.5439 -0.1351
   60MOL   H31519313   5.256   3.298   8.117  0.0477  2.8365 -0.0285
   60MOL   H31619314   4.878   3.276   8.198  1.1711 -2.6446  0.0586
   60MOL   H31719315   4.772   3.335   7.792  1.0615 -1.2061 -1.5794
   60MOL   H31819316   5.019   3.357   7.728 -0.7389 -1.0874 -0.4930
   60MOL   H31919317   5.192   3.331   7.896  0.7950 -0.5127  0.9679
   60MOL   H32019318   5.248   3.433   8.327  2.1015  0.3374 -3.7328
   60MOL   H32119319   5.152   3.511   8.201 -1.0091 -3.4718 -4.5932
   60MOL   H32219320   5.073   3.421   8.327 -0.5334 -0.4229 -0.0820
   61MOL     C119321   1.977   6.405   2.628  0.0485  0.0734 -0.1349
   61MOL     C219322   1.847   6.482   2.625 -0.0195  0.1052 -0.4518
   61MOL     C319323   1.815   6.564   2.519 -0.2100 -0.2992  0.1284
   61MOL     C419324   1.691   6.635   2.509 -0.2695 -0.6696  0.4376
   61MOL    Cl519325   1.656   6.723   2.368  0.4209 -0.0475 -0.2915
   61MOL     C619326   1.599   6.626   2.612  0.0776  0.1468  0.5479
   61MOL     C719327   1.628   6.540   2.725 -0.6243 -0.8611 -0.5729
   61MOL     C819328   1.754   6.472   2.731  0.4509 -0.3220  0.1578
   61MOL     C919329   1.972   6.254   2.595 -0.0067 -0.0276  0.0160
   61MOL    H1019330   2.019   6.419   2.728 -1.9075 -1.0563  0.8752
   61MOL    H1119331   1.886   6.574   2.439 -2.0247  1.9850 -1.2753
   61MOL    H1219332   1.503   6.676   2.610 -0.8728 -1.6264  1.3152
   61MOL    H1319333   1.546   6.526   2.794 -0.1324  0.7571  0.3585
   61MOL    H1419334   1.772   6.406   2.814  0.8910 -0.0285  0.2962
   61MOL    H1519335   1.941   6.202   2.686  0.0240 -0.3403 -0.1513
   61MOL    H1619336   1.892   6.225   2.526  2.5379 -3.4288 -1.6727
   61MOL    H1719337   2.051   6.458   2.568 -0.8317  0.8292 -0.5565
   61MOL    C1819338   2.102   6.183   2.554 -0.0182 -0.3586  0.3190
   61MOL    C1919339   2.070   6.034   2.541 -0.3903  0.1540 -0.4123
   61MOL    C2019340   1.984   5.978   2.447 -0.5081  0.0879 -0.8390
   61MOL    C2119341   1.953   5.841   2.451 -0.3632  0.0052 -0.1674
   61MOL   Cl2219342   1.848   5.772   2.336 -0.3673 -0.0525  0.2712
   61MOL    C2319343   2.015   5.760   2.544  0.6104 -1.1111 -0.4626
   61MOL    C2419344   2.105   5.811   2.643  0.3241 -0.7437 -0.2261
   61MOL    C2519345   2.135   5.948   2.635 -0.6173 -0.6913  0.3550
   61MOL    C2619346   2.161   6.253   2.430 -0.3292  0.4094 -0.4948
   61MOL    H2719347   2.162   6.206   2.642 -1.5447  0.6345  1.1240
   61MOL    H2819348   1.932   6.042   2.379  0.4249  0.5280 -1.1523
   61MOL    H2919349   1.987   5.656   2.543  0.3214 -1.0588  1.4832
   61MOL    H3019350   2.152   5.744   2.713  1.8476  0.0671 -0.4505
   61MOL    H3119351   2.205   6.002   2.697 -0.0742  0.5359 -1.2925
   61MOL    H3219352   2.081   6.265   2.357  0.5426 -2.8751 -2.0515
   61MOL    H3319353   2.189   6.356   2.453 -0.5907  0.6206 -1.1157
   61MOL    C3419354   2.290   6.180   2.367 -0.6907 -0.5331  0.0607
   61MOL    C3519355   2.339   6.247   2.234  0.1744 -0.6625  0.4512
   61MOL    C3619356   2.408   6.365   2.241 -0.0093  0.3400 -1.0172
   61MOL    C3719357   2.469   6.419   2.124  0.7594  0.0838  0.8245
   61MOL   Cl3819358   2.543   6.576   2.121  0.1991  0.5292 -0.0723
   61MOL    C3919359   2.452   6.352   2.003  0.4934 -0.3248  0.3296
   61MOL    C4019360   2.380   6.231   1.989  0.2184  0.5825 -0.1617
   61MOL    C4119361   2.317   6.181   2.107 -0.1629  0.0935  0.1253
   61MOL    C4219362   2.407   6.155   2.464  0.4163  0.2392  0.0640
   61MOL    H4319363   2.250   6.080   2.348 -1.3964 -0.5273  1.4428
   61MOL    H4419364   2.416   6.421   2.333 -0.2146 -0.2477 -0.6362
   61MOL    H4519365   2.506   6.379   1.913  0.4477  1.3448  0.8059
   61MOL    H4619366   2.369   6.172   1.899 -1.4984 -1.2119  1.2034
   61MOL    H4719367   2.273   6.082   2.102  1.8113 -0.7196 -2.1025
   61MOL    H4819368   2.452   6.250   2.494 -1.7129  0.6637  2.0899
   61MOL    H4919369   2.367   6.116   2.558  0.4729 -1.4257 -0.6001
   61MOL    C5019370   2.524   6.065   2.424  0.1954  0.2525  0.1026
   61MOL    C5119371   2.651   6.093   2.502  0.0733 -0.1314 -0.6723
   61MOL    C5219372   2.651   6.107   2.642  0.2348  0.6873  0.0323
   61MOL    C5319373   2.764   6.134   2.724 -0.4282 -0.7129  0.2229
   61MOL   Cl5419374   2.754   6.181   2.888  0.1379 -0.0001 -0.0327
   61MOL    C5519375   2.891   6.113   2.662 -0.8110  0.3651  0.1833
   61MOL    C5619376   2.895   6.086   2.523  0.2014  0.3875 -0.2723
   61MOL    C5719377   2.778   6.085   2.441 -0.7277  0.1673 -0.0589
   61MOL    C5819378   2.481   5.913   2.425  0.5859 -0.3255  0.0309
   61MOL    H5919379   2.541   6.086   2.318  0.5874  0.3284  0.1776
   61MOL    H6019380   2.550   6.105   2.682 -0.3264  0.1525 -1.4078
   61MOL    H6119381   2.978   6.103   2.726 -0.3976 -0.5245 -0.5174
   61MOL    H6219382   2.993   6.072   2.479  0.6792  2.3196  0.1468
   61MOL    H6319383   2.786   6.074   2.334 -0.9988 -0.7771  0.0091
   61MOL    H6419384   2.555   5.845   2.469  1.8080  0.1550 -1.2321
   61MOL    H6519385   2.392   5.900   2.486 -1.3231 -1.6500 -2.9136
   61MOL    C6619386   2.453   5.858   2.282  0.2337  0.0756 -1.1819
   61MOL    C6719387   2.584   5.853   2.205 -0.0814 -0.3237  0.8401
   61MOL    C6819388   2.674   5.742   2.218 -0.2347  0.0348 -0.1272
   61MOL    C6919389   2.793   5.735   2.138 -0.5884  0.3444 -0.0958
   61MOL   Cl7019390   2.893   5.593   2.156  0.5194 -0.4713  0.1073
   61MOL    C7119391   2.816   5.832   2.043  0.4516  0.1342  0.8630
   61MOL    C7219392   2.728   5.942   2.032  0.0112  0.1907  1.0405
   61MOL    C7319393   2.614   5.954   2.115  0.2097 -0.6372 -0.2344
   61MOL    C7419394   2.370   5.727   2.273  0.5991  0.2105  0.4162
   61MOL    H7519395   2.390   5.928   2.227  1.1484  0.3394 -1.9009
   61MOL    H7619396   2.658   5.668   2.295  0.3365  0.1527  0.1125
   61MOL    H7719397   2.901   5.837   1.976 -0.0150  0.4572  0.2983
   61MOL    H7819398   2.756   6.016   1.959  0.4749 -2.2979 -1.3830
   61MOL    H7919399   2.547   6.037   2.094  0.5285 -0.4127 -0.3649
   61MOL    H8019400   2.409   5.668   2.356  0.5535  0.3571  0.5426
   61MOL    H8119401   2.268   5.748   2.303  0.9903 -1.3446  2.9758
   61MOL    C8219402   2.371   5.647   2.135  0.0885  0.1745  0.1593
   61MOL    C8319403   2.273   5.534   2.134 -0.1488 -0.0251 -1.0603
   61MOL    C8419404   2.135   5.549   2.126 -0.5939 -0.6926 -0.6658
   61MOL    C8519405   2.054   5.435   2.118 -0.3598 -0.1867  0.0376
   61MOL   Cl8619406   1.884   5.453   2.109  0.4264 -0.1292  0.0008
   61MOL    C8719407   2.108   5.306   2.129 -0.5507  0.5380  0.0944
   61MOL    C8819408   2.245   5.285   2.144  0.1122 -0.1717 -0.2430
   61MOL    C8919409   2.324   5.402   2.146 -0.5520 -0.9353  0.1348
   61MOL    C9019410   2.336   5.729   2.010 -0.9408 -0.9024  0.1105
   61MOL    H9119411   2.470   5.604   2.117 -0.8555 -2.8261  1.8722
   61MOL    H9219412   2.086   5.645   2.135  2.3495  0.9643 -1.5821
   61MOL    H9319413   2.046   5.218   2.125  1.3615 -0.8643  0.4062
   61MOL    H9419414   2.281   5.184   2.158 -0.8440 -0.3987  0.6820
   61MOL    H9519415   2.432   5.393   2.150 -0.1746  2.6205 -1.0022
   61MOL    H9619416   2.244   5.784   2.027 -0.0323  0.4851  0.6782
   61MOL    H9719417   2.405   5.814   2.013 -0.5194 -1.2070 -0.7077
   61MOL    C9819418   2.361   5.683   1.862 -1.3106 -0.6452 -0.0204
   61MOL    C9919419   2.503   5.621   1.836  0.2477  0.6145  0.4879
   61MOL   C10019420   2.618   5.692   1.798  0.4179  1.0985  0.2387
   61MOL   C10119421   2.742   5.637   1.768  0.7823 -0.3524  0.7344
   61MOL  Cl10219422   2.878   5.737   1.723  0.1102 -0.1448 -0.4262
   61MOL   C10319423   2.751   5.495   1.761  0.4223 -0.6186 -0.8934
   61MOL   C10419424   2.644   5.420   1.811  0.1907 -0.5186  0.6804
   61MOL   C10519425   2.522   5.486   1.848 -0.0525  0.5191  0.3200
   61MOL   C10619426   2.246   5.605   1.808  0.0896  0.2434  0.0988
   61MOL   H10719427   2.363   5.779   1.810  1.9219 -1.3219 -1.3079
   61MOL   H10819428   2.611   5.797   1.775  1.0269  1.0818 -0.0485
   61MOL   H10919429   2.843   5.447   1.733  2.1173  1.7685  0.3820
   61MOL   H11019430   2.645   5.312   1.807  0.2689 -0.4651 -1.6273
   61MOL   H11119431   2.437   5.428   1.877  1.0881 -0.3667  1.9558
   61MOL   H11219432   2.250   5.504   1.850  0.4272 -0.4604 -1.5952
   61MOL   H11319433   2.159   5.658   1.846  0.3103 -0.9231  2.3238
   61MOL   C11419434   2.238   5.586   1.656  0.8721 -0.2603 -0.3517
   61MOL   C11519435   2.143   5.477   1.612  0.1692  0.4576 -0.3399
   61MOL   C11619436   2.177   5.406   1.496  0.1241 -0.7920  0.1489
   61MOL   C11719437   2.085   5.306   1.446  0.3658  0.5946  0.3244
   61MOL  Cl11819438   2.127   5.220   1.300 -0.0018 -0.2030  0.3326
   61MOL   C11919439   1.968   5.271   1.519 -0.2340 -0.1188 -0.1652
   61MOL   C12019440   1.937   5.343   1.638  0.3206  0.4654  0.2406
   61MOL   C12119441   2.027   5.438   1.687 -0.0447 -0.3511  0.1545
   61MOL   C12219442   2.234   5.711   1.568  0.0509 -0.4998  0.5554
   61MOL   H12319443   2.333   5.538   1.631  1.1822 -1.0378  2.1137
   61MOL   H12419444   2.265   5.437   1.441  0.2809  0.6673  1.1872
   61MOL   H12519445   1.903   5.192   1.484 -0.6163  0.0887  0.0776
   61MOL   H12619446   1.843   5.317   1.683  0.7099 -0.0204  0.7780
   61MOL   H12719447   2.000   5.477   1.785 -1.2899 -2.7758  0.8124
   61MOL   H12819448   2.314   5.772   1.610 -1.5862  0.6743  2.0647
   61MOL   H12919449   2.276   5.680   1.472 -1.2658  2.2665 -0.9788
   61MOL   C13019450   2.094   5.784   1.532  0.3770  0.2599  0.7982
   61MOL   C13119451   2.049   5.873   1.636 -0.2525 -0.2951 -0.2800
   61MOL   C13219452   1.968   5.818   1.741 -0.1197 -0.3980 -0.2855
   61MOL   C13319453   1.928   5.898   1.851  0.6424  0.0794 -0.2474
   61MOL  Cl13419454   1.825   5.834   1.975 -0.1302 -0.1736 -0.2990
   61MOL   C13519455   1.976   6.032   1.858  0.0489  0.1325 -0.2216
   61MOL   C13619456   2.054   6.086   1.758  0.1346  0.2202 -0.2038
   61MOL   C13719457   2.088   6.008   1.643  0.3808 -0.1920  0.0553
   61MOL   C13819458   2.104   5.851   1.390 -0.3064 -0.7340  0.1978
   61MOL   H13919459   2.019   5.706   1.518  0.4779 -0.1158  2.3320
   61MOL   H14019460   1.936   5.715   1.748 -0.0389 -0.4001  0.1032
   61MOL   H14119461   1.957   6.097   1.942  0.8512 -1.3118  1.1037
   61MOL   H14219462   2.083   6.189   1.769 -2.4601  0.8420  1.2052
   61MOL   H14319463   2.140   6.053   1.560  1.4261  0.5902  1.1237
   61MOL   H14419464   2.036   5.936   1.380 -0.9691 -1.3529 -0.6969
   61MOL   H14519465   2.195   5.910   1.380 -1.8336  2.0294  1.7951
   61MOL   C14619466   2.085   5.752   1.270 -0.5160 -0.2480  0.2605
   61MOL   C14719467   1.928   5.740   1.241  0.0828 -0.1031  0.3994
   61MOL   C14819468   1.861   5.627   1.286  0.8861 -0.2104 -0.1992
   61MOL   C14919469   1.722   5.608   1.255  0.1912  0.4190  0.1180
   61MOL  Cl15019470   1.634   5.470   1.315 -0.2381  0.1051 -0.2404
   61MOL   C15119471   1.654   5.711   1.182 -0.0378  0.2137 -0.6264
   61MOL   C15219472   1.723   5.825   1.145  0.0273 -0.2985 -0.4373
   61MOL   C15319473   1.860   5.841   1.168  0.0661  0.3512  0.7141
   61MOL   C15419474   2.161   5.798   1.144  0.2507 -0.1659 -0.4557
   61MOL   H15519475   2.119   5.658   1.314  2.1819  1.5865  2.2723
   61MOL   H15619476   1.915   5.545   1.331 -0.9962 -0.5915  1.4008
   61MOL   H15719477   1.549   5.690   1.170 -0.3062 -0.1785  2.0138
   61MOL   H15819478   1.675   5.912   1.102 -0.6476  0.7186  2.2381
   61MOL   H15919479   1.898   5.935   1.133 -0.8289  0.8202  0.9772
   61MOL   H16019480   2.126   5.891   1.101  0.1713  1.4268  2.8720
   61MOL   H16119481   2.256   5.830   1.188 -0.8047  2.8063 -0.2722
   61MOL   C16219482   2.217   5.683   1.057 -0.2211 -0.0757  0.2850
   61MOL   C16319483   2.099   5.626   0.970  0.3784 -1.1380  0.1925
   61MOL   C16419484   2.050   5.498   0.997  0.0058  0.8235  0.2788
   61MOL   C16519485   1.935   5.451   0.932  0.6903  0.1204  0.1707
   61MOL  Cl16619486   1.863   5.300   0.975  0.2479  0.2763 -0.1292
   61MOL   C16719487   1.884   5.528   0.822  0.0423 -0.4014  0.1464
   61MOL   C16819488   1.938   5.657   0.790  0.0680 -0.3888 -0.2930
   61MOL   C16919489   2.047   5.708   0.870 -0.1333 -0.0962 -0.0906
   61MOL   C17019490   2.329   5.738   0.968  0.6629 -0.5814 -0.2625
   61MOL   H17119491   2.262   5.606   1.119 -1.0239 -0.2966  0.6074
   61MOL   H17219492   2.093   5.440   1.078  0.0710 -1.8700 -1.6166
   61MOL   H17319493   1.796   5.491   0.772 -0.5701 -0.3946  1.2080
   61MOL   H17419494   1.894   5.727   0.720 -1.0646 -0.6306  0.1662
   61MOL   H17519495   2.083   5.805   0.838  1.6063 -0.4976  0.6060
   61MOL   H17619496   2.338   5.673   0.881 -1.8102  0.3145 -1.2117
   61MOL   H17719497   2.296   5.829   0.918 -0.5924 -0.6708  0.3998
   61MOL   C17819498   2.465   5.766   1.031 -0.8529  0.3297  0.1129
   61MOL   C17919499   2.509   5.639   1.096  0.2275 -0.6023  0.0897
   61MOL   C18019500   2.523   5.635   1.237  0.6431  0.5632  0.0461
   61MOL   C18119501   2.558   5.514   1.303 -0.8060  0.4925 -0.0287
   61MOL  Cl18219502   2.562   5.512   1.473 -0.6246 -0.5955  0.1491
   61MOL   C18319503   2.596   5.403   1.222 -0.0296 -0.1630 -0.2995
   61MOL   C18419504   2.586   5.409   1.079 -0.5091 -0.4946  0.1328
   61MOL   C18519505   2.534   5.521   1.020 -0.0014  0.2453  0.1599
   61MOL   C18619506   2.568   5.822   0.940 -0.2864 -0.2936 -0.0448
   61MOL   H18719507   2.461   5.841   1.109  3.0152 -0.9276  1.6776
   61MOL   H18819508   2.493   5.713   1.305 -0.0149 -0.5606  1.0551
   61MOL   H18919509   2.615   5.308   1.271  1.7634  1.0196  1.3651
   61MOL   H19019510   2.628   5.327   1.022  0.5785 -0.5602  1.0115
   61MOL   H19119511   2.521   5.531   0.914 -1.8818 -2.1934  0.1431
   61MOL   H19219512   2.563   5.756   0.854 -0.2541 -0.8808  0.3985
   61MOL   H19319513   2.534   5.909   0.883  2.2842 -0.0620 -1.2775
   61MOL   C19419514   2.703   5.866   1.002  0.9929 -0.3376  0.0419
   61MOL   C19519515   2.820   5.801   0.936 -0.4386 -0.3250 -0.0408
   61MOL   C19619516   2.838   5.809   0.791 -0.3040 -1.1025  0.5465
   61MOL   C19719517   2.955   5.758   0.735 -1.7555 -0.0646 -0.6075
   61MOL  Cl19819518   2.994   5.778   0.565  0.1712 -0.1213 -0.0944
   61MOL   C19919519   3.058   5.695   0.813 -0.0940 -0.2916  0.4282
   61MOL   C20019520   3.031   5.679   0.947  0.7196 -0.3557 -0.1405
   61MOL   C20119521   2.917   5.735   1.008  0.3119 -0.1876  0.4221
   61MOL   C20219522   2.718   6.025   1.005  0.4841 -0.1999  0.7539
   61MOL   H20319523   2.694   5.839   1.107  0.2850  2.1305  0.6483
   61MOL   H20419524   2.765   5.862   0.731  1.9851  2.8344  1.0516
   61MOL   H20519525   3.148   5.666   0.760 -1.9166 -3.2576 -1.1779
   61MOL   H20619526   3.105   5.647   1.019 -0.6537  0.6651  1.7830
   61MOL   H20719527   2.906   5.739   1.115 -0.8620 -3.9886  0.5241
   61MOL   H20819528   2.825   6.042   1.002  0.5301 -0.7118 -1.1514
   61MOL   H20919529   2.695   6.068   0.907 -0.6430 -0.1773  1.0171
   61MOL   C21019530   2.646   6.099   1.123 -0.4745  0.0714  0.1306
   61MOL   C21119531   2.688   6.034   1.259  0.5728  0.1838  0.1106
   61MOL   C21219532   2.593   6.013   1.361  0.1644 -0.5861 -0.2883
   61MOL   C21319533   2.641   5.992   1.492  0.4338  0.4525 -0.5466
   61MOL  Cl21419534   2.527   5.983   1.625 -0.0451  0.4692  0.0531
   61MOL   C21519535   2.778   5.986   1.521 -0.3478 -0.3048  0.1156
   61MOL   C21619536   2.877   5.990   1.419 -0.0285 -0.2330 -0.1186
   61MOL   C21719537   2.830   6.015   1.292 -0.5148 -0.9129  0.1751
   61MOL   C21819538   2.667   6.248   1.132 -0.2473  0.4455  0.7663
   61MOL   H21919539   2.540   6.074   1.115 -0.2418 -1.6385  2.0413
   61MOL   H22019540   2.489   6.003   1.335  0.8551 -1.2300 -2.9953
   61MOL   H22119541   2.795   5.976   1.627  1.5746 -0.3713 -0.1854
   61MOL   H22219542   2.980   5.992   1.449 -0.8173 -1.2633  2.8193
   61MOL   H22319543   2.903   6.016   1.213  1.4451 -3.3358  1.8783
   61MOL   H22419544   2.642   6.294   1.228  1.6682  2.4689  0.3547
   61MOL   H22519545   2.774   6.271   1.126 -0.3146  0.6449  0.3278
   61MOL   C22619546   2.599   6.336   1.020  0.3163  0.3121  0.3418
   61MOL   C22719547   2.450   6.320   1.013  0.4253 -0.8311  0.0408
   61MOL   C22819548   2.371   6.285   1.123 -0.3603 -0.0611  0.1277
   61MOL   C22919549   2.231   6.277   1.116 -0.2732 -0.0765  0.2310
   61MOL  Cl23019550   2.149   6.223   1.250  0.1017  0.3978  0.3526
   61MOL   C23119551   2.165   6.333   0.999 -0.2243  0.8929 -0.6414
   61MOL   C23219552   2.240   6.365   0.886 -0.1214 -0.2116 -0.6863
   61MOL   C23319553   2.381   6.357   0.893 -0.0058  0.0970 -0.6422
   61MOL   C23419554   2.628   6.494   1.036  0.2026  0.1773 -0.8777
   61MOL   H23519555   2.639   6.297   0.926 -1.1346 -0.9362  0.2317
   61MOL   H23619556   2.424   6.264   1.215  0.0818 -0.3787 -0.1974
   61MOL   H23719557   2.059   6.351   0.989 -0.9544 -2.8043 -0.1783
   61MOL   H23819558   2.194   6.376   0.789  0.1984 -0.1920 -0.8376
   61MOL   H23919559   2.437   6.363   0.801 -1.0017  0.4977 -1.2336
   61MOL   H24019560   2.732   6.514   1.061 -0.4077  1.2163  0.9308
   61MOL   H24119561   2.608   6.538   0.938  0.8528  1.8477 -0.2718
   61MOL   C24219562   2.531   6.570   1.138  0.2787  0.0995 -0.1131
   61MOL   C24319563   2.565   6.530   1.286 -0.0557 -0.0807  0.2246
   61MOL   C24419564   2.458   6.479   1.365  0.0144 -0.1852 -0.2113
   61MOL   C24519565   2.484   6.453   1.500 -0.2466 -0.0073  0.0692
   61MOL  Cl24619566   2.356   6.393   1.603 -0.2296  0.0711 -0.1281
   61MOL   C24719567   2.607   6.477   1.556 -0.1463 -0.2396  0.1679
   61MOL   C24819568   2.715   6.518   1.478  0.0912  1.0540 -0.4724
   61MOL   C24919569   2.696   6.537   1.341 -0.3308 -0.6093  0.6355
   61MOL   C25019570   2.539   6.719   1.126 -0.1399  0.3687  0.0611
   61MOL   H25119571   2.429   6.539   1.114  0.3652  0.8598 -1.5398
   61MOL   H25219572   2.361   6.457   1.324  0.6573 -1.8215 -0.8837
   61MOL   H25319573   2.629   6.455   1.660  0.3587 -0.9206 -0.0827
   61MOL   H25419574   2.816   6.525   1.515  0.0902 -0.2859 -0.1906
   61MOL   H25519575   2.785   6.573   1.291  1.3704 -3.5088  1.3960
   61MOL   H25619576   2.595   6.757   1.211 -0.8891 -0.1480  0.7850
   61MOL   H25719577   2.598   6.749   1.039 -0.0064  0.3672  0.1509
   61MOL   C25819578   2.406   6.790   1.126  0.0426 -0.8286 -0.4268
   61MOL   C25919579   2.415   6.936   1.169  0.5222  0.2240  0.0418
   61MOL   C26019580   2.339   6.983   1.279 -0.0271 -0.2547  0.3014
   61MOL   C26119581   2.328   7.120   1.308  0.4947  0.1986 -0.3211
   61MOL  Cl26219582   2.224   7.174   1.436  0.3009  0.1137  0.1675
   61MOL   C26319583   2.400   7.211   1.232 -0.0545 -0.2516  0.2913
   61MOL   C26419584   2.483   7.170   1.129 -0.7642  0.2508  0.2711
   61MOL   C26519585   2.491   7.031   1.092 -0.0398 -0.3857 -0.5153
   61MOL   C26619586   2.323   6.768   1.001 -0.5452  0.6560  0.2862
   61MOL   H26719587   2.358   6.738   1.209  2.6161 -1.6143  0.6387
   61MOL   H26819588   2.276   6.903   1.317 -0.2229  0.0128  0.5471
   61MOL   H26919589   2.396   7.318   1.243 -0.8249 -0.3321  0.8534
   61MOL   H27019590   2.534   7.247   1.073 -0.0045 -0.6897 -0.3479
   61MOL   H27119591   2.546   6.988   1.009  0.7857 -0.2120 -0.0654
   61MOL   H27219592   2.377   6.811   0.916 -0.3481  0.4154  0.2883
   61MOL   H27319593   2.327   6.662   0.977  1.3601  0.9070 -0.6267
   61MOL   C27419594   2.170   6.813   1.004 -0.1809 -0.4815  0.0603
   61MOL   C27519595   2.120   6.799   0.862 -0.3782 -0.0961  0.2534
   61MOL   C27619596   2.060   6.679   0.813 -0.6118 -0.0908  0.0189
   61MOL   C27719597   2.023   6.673   0.673  0.1006 -0.5099 -0.2820
   61MOL  Cl27819598   1.934   6.546   0.617 -0.0164 -0.0690  0.4472
   61MOL   C27919599   2.049   6.777   0.587 -0.4149 -0.1245 -0.9389
   61MOL   C28019600   2.109   6.892   0.638  0.9661 -0.5641 -0.3849
   61MOL   C28119601   2.151   6.904   0.772 -0.5447 -0.5564 -0.1000
   61MOL   C28219602   2.078   6.737   1.108  0.5650 -0.0568 -0.8409
   61MOL   H28319603   2.165   6.915   1.040 -0.5556 -0.7833  0.8808
   61MOL   H28419604   2.036   6.598   0.881  0.0658  1.3819  2.0568
   61MOL   H28519605   2.017   6.784   0.484 -1.8487  1.9917 -0.3861
   61MOL   H28619606   2.135   6.971   0.569  1.3302 -0.2590  0.1013
   61MOL   H28719607   2.206   6.992   0.802 -0.7080 -0.8179  0.9844
   61MOL   H28819608   2.078   6.631   1.084 -1.6515 -0.7068  1.7246
   61MOL   H28919609   2.116   6.736   1.210  2.0457 -0.8259 -1.3797
   61MOL   C29019610   1.930   6.787   1.116 -0.6608 -0.6362 -0.8732
   61MOL   C29119611   1.845   6.704   1.210 -0.0942  0.5216  0.1641
   61MOL   C29219612   1.735   6.629   1.164  0.5374 -0.1403 -0.1507
   61MOL   C29319613   1.661   6.544   1.248 -0.3864 -0.9616 -0.0429
   61MOL  Cl29419614   1.522   6.462   1.192 -0.2263  0.2487 -0.0292
   61MOL   C29519615   1.707   6.526   1.383 -0.2477 -0.3645 -0.5074
   61MOL   C29619616   1.806   6.611   1.436  0.6849 -0.6474 -0.0476
   61MOL   C29719617   1.875   6.695   1.350  0.0687 -0.2454  0.4259
   61MOL   C29819618   1.924   6.938   1.173  0.3286  0.3412  0.8928
   61MOL   H29919619   1.886   6.781   1.016  0.5232 -2.7649 -1.2994
   61MOL   H30019620   1.686   6.649   1.070  0.4818  0.3690 -0.0143
   61MOL   H30119621   1.663   6.453   1.448  0.6327  1.7637  2.5950
   61MOL   H30219622   1.840   6.613   1.538 -1.1733  0.7732  0.5749
   61MOL   H30319623   1.961   6.744   1.394  1.3449 -0.0660 -2.1839
   61MOL   H30419624   1.838   6.953   1.238 -0.2220  0.5330  0.1243
   61MOL   H30519625   2.006   6.958   1.242 -0.8953  1.0305  2.1617
   61MOL   C30619626   1.916   7.042   1.065  0.0068  1.3635 -0.4433
   61MOL   C30719627   1.776   7.050   0.996 -0.6508  0.0728 -0.8962
   61MOL   C30819628   1.751   6.975   0.878  0.5941 -0.0989 -0.1393
   61MOL   C30919629   1.625   6.979   0.815  0.2389 -0.2054  0.3148
   61MOL  Cl31019630   1.603   6.889   0.667 -0.2690 -0.4799 -0.0699
   61MOL   C31119631   1.516   7.043   0.875  0.0789 -0.0416 -0.1112
   61MOL   C31219632   1.530   7.097   1.007  0.5653 -0.0997  0.2176
   61MOL   C31319633   1.662   7.098   1.064 -0.3858 -0.1902 -0.2933
   61MOL   C31419634   1.958   7.183   1.118  0.1759  0.4889  1.3364
   61MOL   H31519635   1.995   7.030   0.991 -0.1485  0.7208 -0.5012
   61MOL   H31619636   1.828   6.920   0.826  0.2366  0.5008 -1.3283
   61MOL   H31719637   1.424   7.040   0.820 -1.0339  1.2306  1.6223
   61MOL   H31819638   1.443   7.142   1.054  0.6976  0.9832 -0.5450
   61MOL   H31919639   1.675   7.154   1.156 -1.1058 -1.0706  0.3443
   61MOL   H32019640   2.040   7.179   1.189  0.5346  0.1985  0.9086
   61MOL   H32119641   1.989   7.253   1.040  1.3091 -0.9734  0.4365
   61MOL   H32219642   1.874   7.228   1.171 -0.3249 -2.0499  2.8110
   62MOL     C119643   2.210   0.389   5.777  0.1172  0.0655 -0.0910
   62MOL     C219644   2.341   0.443   5.729 -0.0220  0.1090 -0.2514
   62MOL     C319645   2.462   0.361   5.738  1.0977  0.3064  0.5182
   62MOL     C419646   2.580   0.412   5.673 -0.0438 -0.2622  0.5308
   62MOL    Cl519647   2.723   0.322   5.685 -0.1625  0.0677  0.0346
   62MOL     C619648   2.582   0.542   5.612 -0.2430  0.3774 -0.2894
   62MOL     C719649   2.462   0.620   5.608  0.3751 -0.4238  0.9979
   62MOL     C819650   2.346   0.571   5.664  0.0872  0.5635  0.6554
   62MOL     C919651   2.125   0.336   5.664  0.6329 -0.0872  0.2351
   62MOL    H1019652   2.159   0.472   5.826 -0.1313  0.7091 -1.4213
   62MOL    H1119653   2.468   0.264   5.784  1.5337 -0.1721 -0.5297
   62MOL    H1219654   2.673   0.584   5.571  0.1958  0.6893  0.9708
   62MOL    H1319655   2.471   0.716   5.560  1.7646 -1.6465 -1.3561
   62MOL    H1419656   2.260   0.635   5.652 -0.6455 -0.1728  1.8844
   62MOL    H1519657   2.088   0.415   5.599 -1.3837  0.8068  2.4115
   62MOL    H1619658   2.197   0.290   5.596  1.1290 -0.0833  0.7519
   62MOL    H1719659   2.221   0.304   5.845  0.2782  0.0768 -0.1022
   62MOL    C1819660   2.004   0.259   5.716  0.1534  0.4867  0.9433
   62MOL    C1919661   1.889   0.343   5.777  0.4211  0.0557 -0.5393
   62MOL    C2019662   1.853   0.311   5.915  0.2720 -0.4314  0.5014
   62MOL    C2119663   1.742   0.374   5.971  0.2866 -0.4121  0.4434
   62MOL   Cl2219664   1.690   0.333   6.129 -0.4132 -0.5283  0.0067
   62MOL    C2319665   1.674   0.479   5.904 -0.1754  0.2144 -0.0057
   62MOL    C2419666   1.713   0.518   5.773  0.0303  0.3260 -0.9464
   62MOL    C2519667   1.815   0.448   5.707  0.3482  0.3854  0.0894
   62MOL    C2619668   1.957   0.165   5.603 -0.4590 -0.5643  0.5322
   62MOL    H2719669   2.046   0.196   5.794 -0.2105  0.5713  1.2054
   62MOL    H2819670   1.898   0.228   5.968 -0.7874 -0.9077  0.6740
   62MOL    H2919671   1.591   0.527   5.954  0.2636  0.1849  0.7548
   62MOL    H3019672   1.656   0.590   5.715  0.2602 -0.7643 -2.5660
   62MOL    H3119673   1.835   0.475   5.605 -3.5964  0.5772 -0.7370
   62MOL    H3219674   1.903   0.225   5.530  2.2125  1.1430 -0.0662
   62MOL    H3319675   2.047   0.138   5.548 -0.9636  2.0424 -1.6672
   62MOL    C3419676   1.888   0.030   5.636 -0.4620 -0.1766 -0.0449
   62MOL    C3519677   1.761   0.033   5.725  0.0362 -0.7309 -0.0821
   62MOL    C3619678   1.759   8.409   5.850 -0.0879  0.4652 -1.0327
   62MOL    C3719679   1.638   8.407   5.921 -0.5324 -0.6315 -0.4554
   62MOL   Cl3819680   1.633   8.335   6.077  0.5424 -0.1642  0.0499
   62MOL    C3919681   1.527   0.037   5.870 -0.9197 -0.3092  0.0300
   62MOL    C4019682   1.535   0.113   5.749 -0.6960  0.2459 -0.1537
   62MOL    C4119683   1.652   0.104   5.674  0.3766 -0.5889 -0.7080
   62MOL    C4219684   1.863   8.387   5.502  0.4664  0.3526  0.5821
   62MOL    H4319685   1.959   8.419   5.704  1.0743 -0.2738 -1.6864
   62MOL    H4419686   1.838   8.354   5.898 -3.6227 -2.8399  1.3019
   62MOL    H4519687   1.430   0.033   5.917 -0.6456  2.5492  0.9380
   62MOL    H4619688   1.448   0.167   5.716 -1.0176  0.0479  0.3547
   62MOL    H4719689   1.657   0.160   5.581 -0.4599 -3.6776 -2.6863
   62MOL    H4819690   1.792   0.008   5.442  2.0317  2.6684  0.8224
   62MOL    H4919691   1.953   8.376   5.442 -0.9746  1.0470 -1.7553
   62MOL    C5019692   1.809   8.237   5.516 -0.2210 -0.3661  0.4492
   62MOL    C5119693   1.784   8.168   5.375 -1.1725 -0.8239 -0.9182
   62MOL    C5219694   1.783   8.244   5.255 -0.5325  0.0935 -0.3347
   62MOL    C5319695   1.763   8.181   5.132  0.2953  0.1274  0.1917
   62MOL   Cl5419696   1.775   8.284   4.988  0.1473  0.3340 -0.0309
   62MOL    C5519697   1.743   8.043   5.127 -0.0603 -0.4846  0.2207
   62MOL    C5619698   1.746   7.966   5.245 -0.4835  0.3207 -0.6125
   62MOL    C5719699   1.760   8.027   5.367 -0.2897 -0.4532 -0.5502
   62MOL    C5819700   1.896   8.151   5.608  0.2582 -0.5521  0.2002
   62MOL    H5919701   1.708   8.243   5.557  0.0621 -0.2523  1.1464
   62MOL    H6019702   1.802   8.350   5.254 -1.1838  0.2690  2.4530
   62MOL    H6119703   1.735   7.988   5.035 -0.4230 -1.4633  0.8318
   62MOL    H6219704   1.719   7.861   5.243 -0.3011  0.2965 -2.2365
   62MOL    H6319705   1.746   7.966   5.455 -0.9296 -1.5559 -1.4075
   62MOL    H6419706   1.930   8.212   5.692  2.8481  1.0647 -1.9231
   62MOL    H6519707   1.831   8.078   5.655  0.2774  0.5297  1.9784
   62MOL    C6619708   2.020   8.077   5.559 -0.0163  0.4862  0.0093
   62MOL    C6719709   2.132   8.175   5.526  0.5089  0.3159  0.6569
   62MOL    C6819710   2.197   8.234   5.634  0.7049  0.1249 -0.5212
   62MOL    C6919711   2.288   8.345   5.625  0.6178  0.6512  0.7688
   62MOL   Cl7019712   2.373   8.412   5.767  0.0028 -0.0491  0.1238
   62MOL    C7119713   2.306   8.397   5.497 -0.2512  0.4661  0.1219
   62MOL    C7219714   2.243   8.335   5.381 -0.2483  0.5848 -0.7980
   62MOL    C7319715   2.155   8.226   5.398 -0.0101  0.6352 -0.0073
   62MOL    C7419716   2.056   7.968   5.656  0.1517 -0.2871 -0.6668
   62MOL    H7519717   1.990   8.020   5.471  2.0749 -1.4255  0.5007
   62MOL    H7619718   2.179   8.198   5.735  1.3818  3.1377  0.7250
   62MOL    H7719719   2.381   0.038   5.485  0.4819 -0.2686 -0.0128
   62MOL    H7819720   2.260   8.378   5.284  1.1925  3.4064  0.6266
   62MOL    H7919721   2.092   8.187   5.319  0.7334 -1.4684  0.4106
   62MOL    H8019722   2.073   8.016   5.752  0.0335 -0.3307 -0.6241
   62MOL    H8119723   1.967   7.908   5.670 -0.3710 -0.3607 -3.8324
   62MOL    C8219724   2.177   7.876   5.609 -0.8910  0.4691  0.9354
   62MOL    C8319725   2.259   7.817   5.718  0.4868 -0.2895 -0.2283
   62MOL    C8419726   2.214   7.702   5.788 -0.6634 -0.4612  0.4910
   62MOL    C8519727   2.301   7.631   5.869  0.1868 -0.1148 -0.5589
   62MOL   Cl8619728   2.237   7.495   5.959  0.0832 -0.1776 -0.4122
   62MOL    C8719729   2.432   7.666   5.887 -0.3026  0.5866  0.8895
   62MOL    C8819730   2.480   7.781   5.823  1.0102  0.0405 -0.0016
   62MOL    C8919731   2.390   7.856   5.744  0.2370 -0.2165 -0.2207
   62MOL    C9019732   2.132   7.774   5.503  0.2820  0.4659 -0.5297
   62MOL    H9119733   2.245   7.947   5.563  0.3248 -0.3538  1.4244
   62MOL    H9219734   2.111   7.671   5.781 -0.2688 -1.2452 -2.5230
   62MOL    H9319735   2.503   7.608   5.944  2.7503  2.1653 -1.1256
   62MOL    H9419736   2.583   7.813   5.831  0.3924  2.3678 -0.8490
   62MOL    H9519737   2.424   7.950   5.704 -0.4924 -0.9757 -2.6768
   62MOL    H9619738   2.131   7.676   5.550 -0.0062 -0.1976 -1.8865
   62MOL    H9719739   2.029   7.789   5.470 -0.3566 -0.2663  1.1033
   62MOL    C9819740   2.231   7.767   5.379  0.3309  0.4341 -0.2016
   62MOL    C9919741   2.233   7.634   5.300  0.5432 -0.0870 -0.0030
   62MOL   C10019742   2.119   7.579   5.240 -0.2481  0.0371 -1.1341
   62MOL   C10119743   2.129   7.471   5.155 -0.1751 -0.0642 -0.1410
   62MOL  Cl10219744   1.972   7.416   5.096  0.4599  0.1636  0.3337
   62MOL   C10319745   2.253   7.410   5.125  0.1789 -0.3587  0.3441
   62MOL   C10419746   2.369   7.468   5.182 -0.0604 -0.3314 -0.4653
   62MOL   C10519747   2.357   7.576   5.271 -0.6276 -0.0769 -0.6661
   62MOL   C10619748   2.217   7.891   5.290 -0.0543  0.2332 -0.1157
   62MOL   H10719749   2.331   7.760   5.421 -0.2931  1.7149  1.5442
   62MOL   H10819750   2.026   7.633   5.252 -0.6626 -1.0462  0.6494
   62MOL   H10919751   2.267   7.321   5.066 -2.2724 -2.4030  2.7191
   62MOL   H11019752   2.466   7.423   5.169  0.8490  1.1192  0.9740
   62MOL   H11119753   2.452   7.606   5.313 -0.3199 -1.4921 -0.3029
   62MOL   H11219754   2.109   7.903   5.277 -0.0602  0.6992  0.3272
   62MOL   H11319755   2.241   7.991   5.325 -0.7750 -0.2024  1.6705
   62MOL   C11419756   2.287   7.881   5.150 -0.8015  0.9008 -0.1663
   62MOL   C11519757   2.226   7.979   5.041  0.2728 -0.1303  0.1050
   62MOL   C11619758   2.127   7.924   4.951 -0.2303  0.4934  0.5337
   62MOL   C11719759   2.068   8.006   4.852 -0.7586  0.1457  0.2375
   62MOL  Cl11819760   1.963   7.936   4.738 -0.2135 -0.4350 -0.0104
   62MOL   C11919761   2.116   8.137   4.836 -0.0368  0.0253  0.4786
   62MOL   C12019762   2.208   8.191   4.930 -0.4720  0.3596  0.6001
   62MOL   C12119763   2.264   8.114   5.031  0.2631 -0.0386  0.5182
   62MOL   C12219764   2.442   7.882   5.159  0.6351 -0.1766 -0.5310
   62MOL   H12319765   2.250   7.786   5.113 -1.5145  0.2991  1.9880
   62MOL   H12419766   2.110   7.818   4.957 -0.3447  0.5092  0.4996
   62MOL   H12519767   2.068   8.195   4.759 -1.9332 -1.5093  0.4587
   62MOL   H12619768   2.232   8.294   4.910  1.3658 -0.3063 -0.7696
   62MOL   H12719769   2.350   8.150   5.085  1.4180 -0.0516 -1.2718
   62MOL   H12819770   2.469   7.980   5.200  0.0635  0.2018 -1.0530
   62MOL   H12919771   2.470   7.807   5.233  0.1922  0.2213  0.0506
   62MOL   C13019772   2.519   7.868   5.025 -0.0907 -0.5583 -0.5470
   62MOL   C13119773   2.659   7.931   5.043  0.4168  0.2344 -0.3729
   62MOL   C13219774   2.759   7.871   5.125  0.2229 -0.1531 -0.1446
   62MOL   C13319775   2.880   7.938   5.133  0.4439  0.1681 -0.5166
   62MOL  Cl13419776   3.009   7.879   5.225  0.0417  0.0156  0.0993
   62MOL   C13519777   2.902   8.062   5.067 -0.5755 -0.2663 -0.2629
   62MOL   C13619778   2.796   8.128   5.011 -0.1336  0.3642 -0.2038
   62MOL   C13719779   2.673   8.062   4.994  0.0371  0.0346 -0.1953
   62MOL   C13819780   2.518   7.720   4.979 -0.3697 -0.1408  0.2344
   62MOL   H13919781   2.461   7.919   4.947 -0.2347  0.8914  0.4936
   62MOL   H14019782   2.749   7.777   5.176  0.8717  0.5542  1.3119
   62MOL   H14119783   3.000   8.106   5.058 -0.2911 -0.8217  0.0889
   62MOL   H14219784   2.828   8.217   4.958  2.5957 -0.1621  0.4798
   62MOL   H14319785   2.590   8.105   4.939  0.5384 -0.7966 -1.6390
   62MOL   H14419786   2.567   7.651   5.047  1.6547 -2.9140 -3.8574
   62MOL   H14519787   2.411   7.701   4.981 -0.3905 -0.0821 -0.2677
   62MOL   C14619788   2.563   7.679   4.831  0.4919  0.4289 -0.4567
   62MOL   C14719789   2.710   7.710   4.816  1.0185  0.1227 -0.5785
   62MOL   C14819790   2.807   7.641   4.890 -0.0979 -0.4664 -0.3541
   62MOL   C14919791   2.944   7.665   4.869  0.1043  0.1200 -0.2955
   62MOL  Cl15019792   3.055   7.566   4.949 -0.0233 -0.2703 -0.3248
   62MOL   C15119793   2.983   7.761   4.778  0.1312 -0.2240  0.3367
   62MOL   C15219794   2.884   7.831   4.699 -0.7550  0.0036  0.8163
   62MOL   C15319795   2.747   7.808   4.717  0.1061  0.6029  0.1723
   62MOL   C15419796   2.544   7.527   4.793  0.3811  0.2942  0.0446
   62MOL   H15519797   2.499   7.734   4.762 -0.7011 -0.7726 -0.3177
   62MOL   H15619798   2.776   7.569   4.964 -0.8470  1.0046  0.7783
   62MOL   H15719799   3.089   7.777   4.765 -0.0787 -0.0427 -1.3808
   62MOL   H15819800   2.911   7.911   4.632 -0.1613 -0.2904  0.7030
   62MOL   H15919801   2.675   7.869   4.663 -2.4407 -1.2811  1.3415
   62MOL   H16019802   2.597   7.503   4.700 -0.5815  0.2819 -0.5059
   62MOL   H16119803   2.601   7.471   4.867  0.0302 -0.7871 -0.4991
   62MOL   C16219804   2.397   7.480   4.767  0.8857  0.6497  0.3422
   62MOL   C16319805   2.313   7.556   4.661 -0.1486  0.6909  0.3672
   62MOL   C16419806   2.366   7.601   4.536 -0.2428 -0.1526 -0.3618
   62MOL   C16519807   2.274   7.657   4.446  0.5819 -0.7327  0.6545
   62MOL  Cl16619808   2.348   7.721   4.303  0.0873  0.2186 -0.2294
   62MOL   C16719809   2.139   7.684   4.478 -0.0875  0.2737 -0.0292
   62MOL   C16819810   2.086   7.635   4.596  0.1307  0.2188  0.0589
   62MOL   C16919811   2.178   7.576   4.692 -0.4274 -0.4914 -0.2357
   62MOL   C17019812   2.385   7.320   4.751  0.1498 -0.2894  0.0097
   62MOL   H17119813   2.354   7.501   4.865  0.3167 -0.2449  0.2915
   62MOL   H17219814   2.472   7.601   4.518  0.1685  1.3276  1.9126
   62MOL   H17319815   2.071   7.739   4.414 -0.9277 -0.8910 -0.1548
   62MOL   H17419816   1.980   7.648   4.607  0.3781  2.5695 -0.1316
   62MOL   H17519817   2.131   7.533   4.780 -1.8430  0.1497 -0.6641
   62MOL   H17619818   2.432   7.263   4.830 -1.8187 -0.1586  1.3142
   62MOL   H17719819   2.277   7.311   4.762 -0.3858  1.3872 -3.1928
   62MOL   C17819820   2.420   7.264   4.613 -0.4469 -0.1054  0.3003
   62MOL   C17919821   2.562   7.282   4.594  0.7223 -0.0123  0.6952
   62MOL   C18019822   2.608   7.343   4.475  0.5961  0.7696  0.2187
   62MOL   C18119823   2.741   7.374   4.448 -0.5991 -0.4956 -0.5883
   62MOL  Cl18219824   2.794   7.455   4.304  0.1841 -0.1109  0.0281
   62MOL   C18319825   2.836   7.325   4.542 -0.0734  0.0193  0.2030
   62MOL   C18419826   2.801   7.265   4.660  0.5224  0.3580  0.5241
   62MOL   C18519827   2.667   7.237   4.681 -0.2708 -0.3060  0.5073
   62MOL   C18619828   2.378   7.117   4.606  0.1413  0.8314 -0.5018
   62MOL   H18719829   2.362   7.308   4.532  0.3229 -0.3253 -0.3758
   62MOL   H18819830   2.546   7.373   4.392 -0.8022  2.8328  1.9757
   62MOL   H18919831   2.939   7.347   4.517  0.2434 -2.4862 -0.7572
   62MOL   H19019832   2.878   7.233   4.727 -0.8555  0.5648  2.2398
   62MOL   H19119833   2.646   7.182   4.772 -0.9184 -1.3327 -0.2490
   62MOL   H19219834   2.406   7.091   4.504 -0.8264  1.3813 -0.9215
   62MOL   H19319835   2.448   7.061   4.668 -0.7801 -0.1348 -0.3299
   62MOL   C19419836   2.226   7.076   4.646  0.0217 -0.1375 -0.6656
   62MOL   C19519837   2.131   7.118   4.542 -0.6786  0.6377  0.1502
   62MOL   C19619838   2.027   7.201   4.587 -0.8263  0.8746 -0.1009
   62MOL   C19719839   1.945   7.267   4.496  0.1839  0.4892  0.3017
   62MOL  Cl19819840   1.834   7.386   4.547 -0.0975 -0.4754 -0.1540
   62MOL   C19919841   1.951   7.233   4.357  0.2579  0.0267 -0.6116
   62MOL   C20019842   2.055   7.156   4.310  0.3461  0.7774 -0.0559
   62MOL   C20119843   2.136   7.085   4.405 -0.8512  0.2550  0.4344
   62MOL   C20219844   2.211   6.923   4.666 -0.0657 -0.1676 -0.6023
   62MOL   H20319845   2.215   7.122   4.744  0.4947 -0.2032 -0.5828
   62MOL   H20419846   2.024   7.225   4.692 -1.2706  0.8811 -0.1156
   62MOL   H20519847   1.880   7.279   4.289 -1.3415  1.6856  2.1257
   62MOL   H20619848   2.056   7.135   4.204 -1.1410 -0.7806  0.2160
   62MOL   H20719849   2.221   7.031   4.364 -1.6879 -0.7675  0.0155
   62MOL   H20819850   2.108   6.889   4.666  0.1272 -0.7682 -0.0978
   62MOL   H20919851   2.253   6.871   4.580  1.6021  0.2573 -0.0643
   62MOL   C21019852   2.279   6.868   4.797 -0.1067  0.4667 -1.2066
   62MOL   C21119853   2.197   6.879   4.928  1.3653  0.1639  0.0240
   62MOL   C21219854   2.070   6.819   4.935 -0.9597  0.3016 -0.3957
   62MOL   C21319855   1.995   6.801   5.049 -0.5242 -0.6645  0.0503
   62MOL  Cl21419856   1.860   6.694   5.035 -0.1884  0.2567  0.0531
   62MOL   C21519857   2.047   6.865   5.168 -0.4244 -0.2408  0.7818
   62MOL   C21619858   2.162   6.946   5.160  0.1656 -0.0895  0.1597
   62MOL   C21719859   2.245   6.942   5.041 -0.3165 -0.1889 -0.7074
   62MOL   C21819860   2.328   6.722   4.776  0.3541  0.1017 -0.1327
   62MOL   H21919861   2.368   6.926   4.822  0.4858 -1.1398  0.5482
   62MOL   H22019862   2.022   6.772   4.850 -0.2942 -1.2902  0.0892
   62MOL   H22119863   1.996   6.846   5.261 -3.6759  3.4888 -0.1044
   62MOL   H22219864   2.200   6.999   5.247 -0.6056 -0.2687  0.6119
   62MOL   H22319865   2.342   6.989   5.038 -0.6205  0.5013 -0.1230
   62MOL   H22419866   2.354   6.674   4.870  1.1126  0.0344 -0.3728
   62MOL   H22519867   2.236   6.677   4.737  0.0285 -0.7740  1.6101
   62MOL   C22619868   2.449   6.701   4.690  0.1176 -0.2777  0.7053
   62MOL   C22719869   2.574   6.757   4.759  0.4283 -0.0753 -0.4814
   62MOL   C22819870   2.619   6.706   4.882  0.0869  0.1654  0.1779
   62MOL   C22919871   2.740   6.748   4.943 -0.1319 -0.7605  0.5597
   62MOL  Cl23019872   2.797   6.688   5.090 -0.3103  0.1549 -0.7423
   62MOL   C23119873   2.817   6.844   4.874  0.5565  0.5782  0.0871
   62MOL   C23219874   2.776   6.892   4.748 -0.1196  0.5695  0.3936
   62MOL   C23319875   2.653   6.852   4.693  0.7521 -0.6350 -0.1419
   62MOL   C23419876   2.463   6.556   4.675  0.4231  0.2592 -0.0314
   62MOL   H23519877   2.446   6.736   4.587  1.7525 -1.6127  0.1861
   62MOL   H23619878   2.558   6.638   4.940  0.0834  0.5949  0.6848
   62MOL   H23719879   2.912   6.875   4.915 -0.3819  0.5391  2.3707
   62MOL   H23819880   2.838   6.955   4.686 -1.1116  0.2420 -0.9350
   62MOL   H23919881   2.627   6.887   4.594 -3.5138 -0.4711  0.9364
   62MOL   H24019882   2.474   6.518   4.776 -1.1239  2.3298  0.9626
   62MOL   H24119883   2.368   6.515   4.640  1.2167 -1.8862  0.2628
   62MOL   C24219884   2.580   6.502   4.595  0.3940 -0.8690  0.5183
   62MOL   C24319885   2.677   6.425   4.685 -0.4712 -0.0732  0.3074
   62MOL   C24419886   2.803   6.485   4.696 -0.9035 -0.0868 -0.8053
   62MOL   C24519887   2.899   6.426   4.780 -0.1243  0.9689 -0.2246
   62MOL  Cl24619888   3.058   6.503   4.795  0.1653 -0.2280  0.0670
   62MOL   C24719889   2.864   6.312   4.855 -0.1830  0.4828  0.0032
   62MOL   C24819890   2.731   6.258   4.848  0.2398  0.1144  0.0655
   62MOL   C24919891   2.643   6.310   4.752  0.7076  0.0461  0.0022
   62MOL   C25019892   2.539   6.428   4.473 -0.6206 -0.2251  0.2843
   62MOL   H25119893   2.635   6.588   4.558  0.8896 -1.2890  0.2640
   62MOL   H25219894   2.834   6.574   4.644  1.2529 -0.2929  0.0970
   62MOL   H25319895   2.936   6.268   4.923  1.3168  0.2290 -1.7153
   62MOL   H25419896   2.707   6.170   4.906  2.1507  0.8808  2.0951
   62MOL   H25519897   2.546   6.267   4.733 -0.1160  1.6312  0.4813
   62MOL   H25619898   2.619   6.363   4.437 -1.4851 -0.4634 -1.2406
   62MOL   H25719899   2.462   6.353   4.489 -0.7309  0.0813  1.2182
   62MOL   C25819900   2.491   6.518   4.355 -0.1944  0.1740 -0.7423
   62MOL   C25919901   2.603   6.612   4.305  1.0759  0.2160  0.2947
   62MOL   C26019902   2.590   6.750   4.328 -0.1460  0.0600 -0.4482
   62MOL   C26119903   2.695   6.838   4.297  0.1956 -0.5993 -0.2696
   62MOL  Cl26219904   2.678   7.004   4.329 -0.2239  0.0740 -0.4114
   62MOL   C26319905   2.810   6.792   4.234  0.5642 -0.0972  0.6329
   62MOL   C26419906   2.821   6.652   4.208  0.0968 -0.1042 -0.7232
   62MOL   C26519907   2.714   6.567   4.239 -0.4134 -0.2626  0.5805
   62MOL   C26619908   2.412   6.436   4.245 -0.2402 -0.3320 -0.0903
   62MOL   H26719909   2.414   6.580   4.400 -0.4159  0.5200 -1.5901
   62MOL   H26819910   2.511   6.789   4.390  0.4581 -1.5494  1.3961
   62MOL   H26919911   2.896   6.852   4.209  0.1670 -0.3961 -1.5684
   62MOL   H27019912   2.910   6.610   4.164  0.4339  1.2268 -1.3285
   62MOL   H27119913   2.728   6.463   4.213 -0.3221  0.0073 -0.4790
   62MOL   H27219914   2.409   6.485   4.147 -1.4552  0.7465  0.4801
   62MOL   H27319915   2.477   6.353   4.218  0.1261  0.2685 -1.0804
   62MOL   C27419916   2.264   6.393   4.280 -0.6672  0.6533 -0.1935
   62MOL   C27519917   2.179   6.513   4.319 -0.8037 -0.5772 -0.8960
   62MOL   C27619918   2.105   6.518   4.437  0.8022  0.7511  0.4403
   62MOL   C27719919   2.044   6.643   4.473  0.0328  0.0520  0.1289
   62MOL  Cl27819920   1.963   6.658   4.625 -0.2627 -0.1026 -0.0475
   62MOL   C27919921   2.049   6.757   4.389 -0.1285  0.2811  0.2665
   62MOL   C28019922   2.127   6.750   4.275  0.0186 -0.0536  0.3088
   62MOL   C28119923   2.196   6.630   4.241  0.3769  1.1651  0.2831
   62MOL   C28219924   2.200   6.304   4.161 -0.6486  0.2778 -0.1609
   62MOL   H28319925   2.280   6.325   4.363  1.8252 -0.7551 -1.7928
   62MOL   H28419926   2.106   6.434   4.506 -0.3781  0.1823 -0.2085
   62MOL   H28519927   1.995   6.848   4.416  2.7398  1.7935  1.1272
   62MOL   H28619928   2.136   6.834   4.207 -1.5677 -0.5367 -0.5120
   62MOL   H28719929   2.255   6.643   4.151  0.3902 -2.9094 -0.4079
   62MOL   H28819930   2.095   6.295   4.188 -0.5327  0.2336  0.2797
   62MOL   H28919931   2.202   6.357   4.066 -0.6599 -1.1207 -0.9435
   62MOL   C29019932   2.262   6.155   4.153  0.2046  0.8441  0.3276
   62MOL   C29119933   2.210   6.070   4.274 -0.5628 -0.3164 -0.2500
   62MOL   C29219934   2.078   6.025   4.278 -0.2007 -0.0330  0.5896
   62MOL   C29319935   2.035   5.930   4.376  0.1637  0.2987  0.5261
   62MOL  Cl29419936   1.869   5.894   4.393  0.2879 -0.5974 -0.0892
   62MOL   C29519937   2.123   5.902   4.488 -0.1889 -0.2285  0.0256
   62MOL   C29619938   2.259   5.948   4.482  0.6473  0.5352 -0.0529
   62MOL   C29719939   2.300   6.038   4.376  0.4612  0.2821  0.3554
   62MOL   C29819940   2.241   6.077   4.018 -0.2240 -0.1817 -0.3376
   62MOL   H29919941   2.370   6.160   4.170  0.1501 -1.0316  1.3177
   62MOL   H30019942   2.012   6.050   4.197  3.4457  2.4062 -1.7696
   62MOL   H30119943   2.086   5.841   4.570  0.8670 -1.4897 -0.4165
   62MOL   H30219944   2.321   5.923   4.568  0.8086 -0.6535 -0.5071
   62MOL   H30319945   2.400   6.078   4.377  0.3790  0.5633 -1.0991
   62MOL   H30419946   2.297   5.984   4.016  0.4246  0.1278  2.4579
   62MOL   H30519947   2.136   6.059   3.995 -0.2266  0.9064 -1.2997
   62MOL   C30619948   2.275   6.161   3.888  0.0989  0.7478  0.2363
   62MOL   C30719949   2.417   6.227   3.900 -0.4175  0.2984  0.1653
   62MOL   C30819950   2.436   6.361   3.888  0.0465  0.5758 -0.3819
   62MOL   C30919951   2.565   6.422   3.908  0.6011  0.3057 -0.1646
   62MOL  Cl31019952   2.597   6.585   3.874 -0.5571 -0.2482 -0.5353
   62MOL   C31119953   2.671   6.339   3.939  0.8536 -0.0080 -0.3027
   62MOL   C31219954   2.652   6.198   3.946 -0.2337  0.0387  0.1304
   62MOL   C31319955   2.523   6.141   3.933 -0.1951 -0.0645 -0.0771
   62MOL   C31419956   2.257   6.076   3.767 -0.0968  0.1811 -0.2316
   62MOL   H31519957   2.199   6.239   3.883 -0.3918  0.3168  0.8270
   62MOL   H31619958   2.350   6.422   3.867  0.1403  0.5382 -0.8830
   62MOL   H31719959   2.769   6.381   3.958  0.6407 -0.3034  1.5359
   62MOL   H31819960   2.735   6.136   3.976 -0.9449 -1.5097 -1.0283
   62MOL   H31919961   2.494   6.038   3.942  0.0965 -0.1950 -0.5908
   62MOL   H32019962   2.175   6.005   3.776 -1.3160  1.0743 -3.5448
   62MOL   H32119963   2.238   6.148   3.687  1.2715  1.2748  0.3982
   62MOL   H32219964   2.346   6.025   3.730 -1.7926 -1.0999 -2.7497
   63MOL     C119965   3.651   0.220   5.430  0.3480  0.2990 -0.8069
   63MOL     C219966   3.744   0.308   5.340  0.3005 -0.5306  0.1887
   63MOL     C319967   3.698   0.349   5.211  0.5153 -0.4642 -0.3025
   63MOL     C419968   3.792   0.415   5.131  0.2472  0.1121  0.4029
   63MOL    Cl519969   3.728   0.461   4.974  0.0205 -0.7053 -0.0193
   63MOL     C619970   3.923   0.447   5.168  0.0516 -0.3850 -0.2844
   63MOL     C719971   3.961   0.415   5.297  0.4225  0.5094  0.0869
   63MOL     C819972   3.871   0.349   5.387 -0.4831  0.5750  0.1763
   63MOL     C919973   3.611   0.298   5.555 -0.0596 -0.2100 -0.1126
   63MOL    H1019974   3.722   0.143   5.461 -0.2451  0.1466  0.1963
   63MOL    H1119975   3.601   0.318   5.173  0.9995 -1.5353 -0.7063
   63MOL    H1219976   3.986   0.506   5.101  0.6064 -0.2730  0.3287
   63MOL    H1319977   4.057   0.437   5.340  0.1356 -2.4314  2.4415
   63MOL    H1419978   3.919   0.323   5.480  1.5488  0.9354 -0.7509
   63MOL    H1519979   3.702   0.325   5.608 -0.6205  1.3780  0.0710
   63MOL    H1619980   3.566   0.394   5.531  1.5897  0.8034  0.8035
   63MOL    H1719981   3.568   0.181   5.370 -2.2434  2.9870  0.8631
   63MOL    C1819982   3.526   0.214   5.648 -0.1786 -0.8104  0.1536
   63MOL    C1919983   3.602   0.091   5.698 -0.1796  0.6419  0.0555
   63MOL    C2019984   3.709   0.118   5.788 -0.0409  0.3362  0.2254
   63MOL    C2119985   3.774   0.016   5.859  0.4426  0.7628  0.2001
   63MOL   Cl2219986   3.885   0.043   5.986 -0.3310  0.6323  0.0616
   63MOL    C2319987   3.739   8.316   5.823 -1.0721  0.0035  1.0805
   63MOL    C2419988   3.652   8.289   5.712  0.1118 -0.5692 -0.2138
   63MOL    C2519989   3.578   8.388   5.653  0.2265 -0.7905  0.0593
   63MOL    C2619990   3.476   0.296   5.773 -0.0326 -0.1928 -0.2478
   63MOL    H2719991   3.443   0.174   5.591  0.6427  0.2102 -1.8013
   63MOL    H2819992   3.731   0.220   5.815 -0.1054  0.4767 -0.2348
   63MOL    H2919993   3.790   8.232   5.870 -1.8770 -0.0518  1.8494
   63MOL    H3019994   3.624   8.189   5.682 -0.5390 -1.5098  3.3962
   63MOL    H3119995   3.507   8.366   5.575 -0.1442 -3.2944  1.0752
   63MOL    H3219996   3.560   0.343   5.825 -0.9248 -0.9303  1.9168
   63MOL    H3319997   3.426   0.384   5.735  1.3403  0.7325  0.0476
   63MOL    C3419998   3.388   0.226   5.887 -0.2972 -0.0694 -0.4940
   63MOL    C3519999   3.253   0.176   5.836  0.0422 -0.8437  0.2900
   63MOL    C3620000   3.241   0.068   5.750 -0.5705  0.1042 -0.3300
   63MOL    C3720001   3.117   0.029   5.699  0.5256 -0.7788 -0.5937
   63MOL   Cl3820002   3.109   8.349   5.577  0.0734  0.2276  0.1477
   63MOL    C3920003   2.996   0.097   5.737  0.2605  0.1241 -0.8009
   63MOL    C4020004   3.003   0.203   5.830  0.0800  0.4470 -0.1445
   63MOL    C4120005   3.132   0.241   5.876  0.4740  0.1702 -0.1993
   63MOL    C4220006   3.466   0.128   5.979  0.5213  0.1650 -0.3171
   63MOL    H4320007   3.367   0.307   5.957  1.7925 -0.0111  0.0822
   63MOL    H4420008   3.326   0.014   5.711  0.0663  0.0838  1.0484
   63MOL    H4520009   2.896   0.067   5.708 -0.1170 -0.0405  0.6153
   63MOL    H4620010   2.911   0.240   5.873  1.1892 -0.0773  2.8456
   63MOL    H4720011   3.145   0.326   5.942 -0.4199  0.9641 -1.0318
   63MOL    H4820012   3.488   0.043   5.915  1.0842 -0.3512  0.5515
   63MOL    H4920013   3.556   0.171   6.025  0.6711 -0.3898 -0.0883
   63MOL    C5020014   3.391   0.064   6.094 -0.7869  0.3140 -0.4806
   63MOL    C5120015   3.486   8.403   6.165 -0.4060 -0.1364 -0.0129
   63MOL    C5220016   3.464   8.259   6.152 -0.4710 -0.4201  0.1592
   63MOL    C5320017   3.548   8.160   6.214  0.0185 -0.2278 -0.3147
   63MOL   Cl5420018   3.521   7.989   6.193 -0.0750  0.1284 -0.2638
   63MOL    C5520019   3.663   8.206   6.286  0.4889 -0.1169 -0.1333
   63MOL    C5620020   3.686   8.348   6.298  0.7737  0.1215  0.1245
   63MOL    C5720021   3.597   0.007   6.237 -0.9497  0.0381 -0.1782
   63MOL    C5820022   3.313   0.172   6.181 -0.0283 -0.0778  0.3809
   63MOL    H5920023   3.317   0.009   6.037 -0.4434  2.1134 -2.7336
   63MOL    H6020024   3.377   8.232   6.093 -0.5968  0.4423 -0.0644
   63MOL    H6120025   3.722   8.131   6.336 -0.1031 -2.2363 -2.5414
   63MOL    H6220026   3.769   8.380   6.359  0.3973 -2.0553  1.8198
   63MOL    H6320027   3.609   0.114   6.241 -1.3333  0.0777 -0.0510
   63MOL    H6420028   3.368   0.265   6.166 -0.0496 -0.0046  0.7415
   63MOL    H6520029   3.222   0.185   6.122  1.1971  2.7734 -1.0149
   63MOL    C6620030   3.295   0.137   6.328 -0.1059 -0.2100  0.1992
   63MOL    C6720031   3.233   0.253   6.404  0.2950  0.5891  0.7831
   63MOL    C6820032   3.102   0.289   6.370 -0.4581  0.1064  0.0442
   63MOL    C6920033   3.037   0.386   6.443  0.2340 -0.3245  0.0990
   63MOL   Cl7020034   2.876   0.438   6.388 -0.0423  0.0794  0.0120
   63MOL    C7120035   3.098   0.450   6.552 -0.7354 -0.3123  0.1489
   63MOL    C7220036   3.231   0.417   6.580 -0.6995 -0.4317  0.0093
   63MOL    C7320037   3.303   0.319   6.510 -0.2451  0.4987 -0.5691
   63MOL    C7420038   3.218   8.431   6.345  0.3759  0.2455  0.3076
   63MOL    H7520039   3.394   0.127   6.372 -0.5791  1.9845  1.8250
   63MOL    H7620040   3.038   0.239   6.298  2.6401 -2.1109 -1.2961
   63MOL    H7720041   3.052   0.533   6.603 -2.7949 -0.8632 -0.7635
   63MOL    H7820042   3.287   0.463   6.660  0.3578  1.2879 -1.6875
   63MOL    H7920043   3.403   0.301   6.548  1.1375  1.1896 -3.7409
   63MOL    H8020044   3.112   0.007   6.325  0.6724 -1.9884 -2.9797
   63MOL    H8120045   3.251   8.367   6.263  0.4180 -0.0629  0.5664
   63MOL    C8220046   3.243   8.362   6.482  0.5178  0.2840 -0.5248
   63MOL    C8320047   3.151   8.426   6.592  1.4672  0.1989 -0.4589
   63MOL    C8420048   3.194   0.068   6.705 -0.2028  0.2426  0.4067
   63MOL    C8520049   3.106   0.121   6.802 -0.2598 -0.7564 -0.1081
   63MOL   Cl8620050   3.172   0.235   6.924 -0.1233  0.2593  0.0331
   63MOL    C8720051   2.972   0.102   6.784 -0.5783  0.5409  0.1587
   63MOL    C8820052   2.922   0.036   6.671 -0.6471  0.0888  0.3148
   63MOL    C8920053   3.010   8.403   6.589  0.0551  0.0592  0.0802
   63MOL    C9020054   3.226   8.207   6.460  0.8147 -0.1879 -0.2995
   63MOL    H9120055   3.342   8.367   6.527  0.4430 -1.2784 -0.1706
   63MOL    H9220056   3.301   0.085   6.710 -0.1448  0.1221 -0.4179
   63MOL    H9320057   2.899   0.146   6.851 -0.3315  0.6654  0.3424
   63MOL    H9420058   2.817   0.029   6.647 -0.3518 -1.1319 -0.6632
   63MOL    H9520059   2.982   8.340   6.506  0.5379  1.2946 -1.0283
   63MOL    H9620060   3.134   8.202   6.402  1.3450  1.1214 -1.3066
   63MOL    H9720061   3.300   8.176   6.386  1.1807  3.1650 -1.4432
   63MOL    C9820062   3.205   8.121   6.581 -0.5325  0.6524  0.4814
   63MOL    C9920063   3.150   7.978   6.548  0.8543  0.4413  0.4091
   63MOL   C10020064   3.028   7.929   6.599  0.0274  0.1461  0.6503
   63MOL   C10120065   2.984   7.802   6.557  0.2525 -0.0537  0.2808
   63MOL  Cl10220066   2.828   7.742   6.614  0.2372 -0.2975  0.4091
   63MOL   C10320067   3.054   7.716   6.477 -0.0555  0.5784 -0.4442
   63MOL   C10420068   3.185   7.758   6.439  0.3251  0.2255  0.2608
   63MOL   C10520069   3.229   7.888   6.471  0.1747  0.2058 -0.2472
   63MOL   C10620070   3.333   8.096   6.667 -0.1306 -0.5448  0.0099
   63MOL   H10720071   3.134   8.172   6.646 -0.5202 -0.3225  1.2643
   63MOL   H10820072   2.970   7.997   6.659  2.1417  2.3788  0.2552
   63MOL   H10920073   3.002   7.624   6.455  0.4125  0.2839 -0.3334
   63MOL   H11020074   3.244   7.686   6.385 -2.1191 -1.3883 -0.3746
   63MOL   H11120075   3.316   7.929   6.423  0.3049  0.6271  0.3470
   63MOL   H11220076   3.335   7.987   6.676 -0.3013 -0.5480  0.0008
   63MOL   H11320077   3.425   8.120   6.615  0.2971 -2.5695 -0.2240
   63MOL   C11420078   3.323   8.152   6.809 -0.4147  0.2897 -0.5805
   63MOL   C11520079   3.198   8.094   6.886 -0.4424  0.5018 -0.8784
   63MOL   C11620080   3.091   8.178   6.922  0.8339  0.3837  0.3848
   63MOL   C11720081   2.979   8.129   6.995  0.2482  0.1082  0.7339
   63MOL  Cl11820082   2.835   8.220   7.000 -0.3424 -0.2434 -0.1093
   63MOL   C11920083   2.990   8.001   7.054  0.6947 -0.2347  0.6337
   63MOL   C12020084   3.095   7.914   7.022 -0.0814  0.1810  0.2088
   63MOL   C12120085   3.196   7.959   6.930 -0.4858 -0.7999 -0.0193
   63MOL   C12220086   3.450   8.121   6.897 -0.2744 -0.2614  0.5275
   63MOL   H12320087   3.309   8.260   6.802  2.3408  0.6860 -0.3462
   63MOL   H12420088   3.084   8.279   6.883 -2.0762 -0.5780 -1.7640
   63MOL   H12520089   2.907   7.964   7.112 -0.5234  0.8117 -0.3934
   63MOL   H12620090   3.086   7.817   7.068  2.4023 -0.6976 -1.0817
   63MOL   H12720091   3.277   7.891   6.908  0.4845 -0.2567  1.7518
   63MOL   H12820092   3.434   8.151   7.000  0.2795 -1.4250  0.9633
   63MOL   H12920093   3.464   8.013   6.892  0.7220 -0.1998  1.8368
   63MOL   C13020094   3.580   8.190   6.858  0.1615  0.2277 -0.1932
   63MOL   C13120095   3.573   8.341   6.840 -0.2980 -0.6719  0.1361
   63MOL   C13220096   3.538   8.420   6.948 -0.3755  0.1834  0.6703
   63MOL   C13320097   3.524   0.120   6.941 -0.0168 -1.0382  0.7195
   63MOL  Cl13420098   3.470   0.216   7.077 -0.0975 -0.2818 -0.0403
   63MOL   C13520099   3.545   0.177   6.816  0.1110 -0.3503 -0.6230
   63MOL   C13620100   3.581   0.097   6.703 -0.3352 -0.0254 -0.0186
   63MOL   C13720101   3.590   8.394   6.711  0.3190 -0.2956  0.0561
   63MOL   C13820102   3.700   8.150   6.947  0.1024 -0.1203  0.2038
   63MOL   H13920103   3.597   8.142   6.761  0.2505 -0.8613  0.3532
   63MOL   H14020104   3.525   8.373   7.045 -1.8554 -3.0994 -1.0696
   63MOL   H14120105   3.546   0.283   6.795 -0.7338 -0.6260 -2.1659
   63MOL   H14220106   3.583   0.145   6.606  0.9392 -0.0823 -0.0329
   63MOL   H14320107   3.612   8.330   6.627  3.6219  1.9590 -0.8996
   63MOL   H14420108   3.691   8.183   7.051 -1.7382  1.6680 -0.4962
   63MOL   H14520109   3.695   8.041   6.945 -0.5552 -0.0916  0.1305
   63MOL   C14620110   3.837   8.194   6.892  0.6368 -0.1026  0.5802
   63MOL   C14720111   3.951   8.180   6.996 -0.0386 -0.0858  0.0104
   63MOL   C14820112   3.953   8.100   7.110  0.2656  0.4015  0.0802
   63MOL   C14920113   4.065   8.093   7.191 -0.0895  0.0211 -0.2110
   63MOL  Cl15020114   4.064   7.995   7.333  0.1777 -0.1049 -0.0374
   63MOL   C15120115   4.173   8.180   7.163 -0.0076 -0.1296 -0.5855
   63MOL   C15220116   4.170   8.275   7.058 -0.6527  0.0670  0.1019
   63MOL   C15320117   4.060   8.268   6.970  0.4501 -0.5500 -0.2487
   63MOL   C15420118   3.876   8.126   6.756 -0.3341 -0.0547 -0.4502
   63MOL   H15520119   3.829   8.301   6.871 -0.4621 -0.2157  0.4021
   63MOL   H15620120   3.873   8.030   7.128  0.4691  0.2201  0.2870
   63MOL   H15720121   4.265   8.165   7.218 -0.5191 -0.2706  0.2318
   63MOL   H15820122   4.251   8.346   7.050 -1.7359  1.2096 -0.9057
   63MOL   H15920123   4.054   8.329   6.882 -2.1849 -1.1504 -0.5066
   63MOL   H16020124   3.811   8.171   6.681 -1.0077  0.2616  0.3159
   63MOL   H16120125   3.971   8.169   6.724 -0.0449  0.2294  0.7624
   63MOL   C16220126   3.887   7.975   6.745  0.3187 -0.6429  0.2768
   63MOL   C16320127   3.753   7.920   6.703 -0.1355 -0.5153 -0.2110
   63MOL   C16420128   3.680   7.839   6.783 -0.0429 -0.5996  0.6141
   63MOL   C16520129   3.557   7.782   6.745 -0.1492 -0.7985  0.0500
   63MOL  Cl16620130   3.478   7.675   6.852 -0.1983  0.0196 -0.1283
   63MOL   C16720131   3.504   7.794   6.620  0.0812 -0.1674  0.5212
   63MOL   C16820132   3.576   7.875   6.525  0.0061 -0.2162 -0.4604
   63MOL   C16920133   3.696   7.938   6.569  0.0056  0.0174  0.1284
   63MOL   C17020134   3.987   7.937   6.635 -0.0009 -0.3251  0.8625
   63MOL   H17120135   3.927   7.944   6.842 -1.7222 -0.1208  1.3045
   63MOL   H17220136   3.718   7.824   6.883 -1.2468  0.9649  1.3322
   63MOL   H17320137   3.423   7.730   6.588 -0.0384  0.2010  0.0917
   63MOL   H17420138   3.545   7.874   6.421 -0.0855 -1.0050 -0.4332
   63MOL   H17520139   3.745   8.000   6.496 -0.5621  0.6478  0.2733
   63MOL   H17620140   3.961   7.840   6.593  0.8593  0.6770 -2.1575
   63MOL   H17720141   3.970   8.007   6.552 -1.2299 -0.3631  1.0639
   63MOL   C17820142   4.139   7.925   6.686  0.0379 -1.0213 -0.7485
   63MOL   C17920143   4.154   7.824   6.796 -0.2669  0.3091  0.6595
   63MOL   C18020144   4.224   7.856   6.916 -0.2213 -0.4140  0.7031
   63MOL   C18120145   4.231   7.761   7.016 -0.3414 -0.6148  0.1981
   63MOL  Cl18220146   4.306   7.815   7.172  0.1840 -0.2439  0.7879
   63MOL   C18320147   4.168   7.636   7.002 -0.3627 -0.5650 -0.2077
   63MOL   C18420148   4.101   7.602   6.885  0.0672  0.3244  0.1225
   63MOL   C18520149   4.091   7.696   6.783 -0.6284 -0.4974  0.7709
   63MOL   C18620150   4.234   7.905   6.566 -0.2763 -0.0719 -0.6409
   63MOL   H18720151   4.175   8.021   6.724 -0.6158 -1.3747  0.7875
   63MOL   H18820152   4.276   7.950   6.920  0.3754 -0.7194  0.0612
   63MOL   H18920153   4.172   7.568   7.086  1.8856 -2.3913 -1.7408
   63MOL   H19020154   4.062   7.505   6.857 -0.5254  0.6887 -0.3336
   63MOL   H19120155   4.055   7.657   6.689  0.5647  0.9800 -0.3411
   63MOL   H19220156   4.330   7.886   6.614  0.0437  0.8715 -0.8953
   63MOL   H19320157   4.206   7.814   6.514  1.0217 -0.9525  0.1581
   63MOL   C19420158   4.254   8.011   6.459  0.4304 -0.3425  0.5682
   63MOL   C19520159   4.237   8.151   6.514  0.9653  0.2564  0.1344
   63MOL   C19620160   4.330   8.203   6.609 -0.0361  0.3824  0.0475
   63MOL   C19720161   4.300   8.327   6.676 -0.3807 -0.1394 -0.0140
   63MOL  Cl19820162   4.401   8.379   6.798  0.1891  0.1621 -0.2294
   63MOL   C19920163   4.196   8.415   6.631  0.5669  0.3777 -0.3280
   63MOL   C20020164   4.116   8.363   6.523  0.9674  0.1317  0.1860
   63MOL   C20120165   4.135   8.235   6.473 -0.6464 -0.2096  0.3303
   63MOL   C20220166   4.388   7.989   6.390 -0.1438 -1.0396 -0.0030
   63MOL   H20320167   4.179   7.994   6.382 -0.5178  2.5771  0.7848
   63MOL   H20420168   4.408   8.140   6.649 -1.1422 -1.8487 -1.1925
   63MOL   H20520169   4.177   0.073   6.681 -1.3624 -0.1702  0.0301
   63MOL   H20620170   4.042   8.422   6.472  2.4159  1.1934 -0.7205
   63MOL   H20720171   4.073   8.194   6.394  0.4979 -0.8466 -0.2609
   63MOL   H20820172   4.468   8.053   6.426  0.2005 -0.5203 -1.6442
   63MOL   H20920173   4.442   7.899   6.419  2.3062  0.2913 -0.3689
   63MOL   C21020174   4.379   7.989   6.240 -0.1389 -0.3617  0.0283
   63MOL   C21120175   4.331   8.122   6.179  0.5952  0.1742 -0.2491
   63MOL   C21220176   4.234   8.118   6.070  0.2806 -0.2967  0.2211
   63MOL   C21320177   4.196   8.242   6.004  0.3551  0.0089 -0.0459
   63MOL  Cl21420178   4.096   8.222   5.865  0.2065 -0.1231  0.1469
   63MOL   C21520179   4.244   8.359   6.057  0.1943  0.4922 -0.3881
   63MOL   C21620180   4.334   8.367   6.166  0.0220  0.3191 -0.3665
   63MOL   C21720181   4.371   8.242   6.227  0.1725  0.5539 -0.0085
   63MOL   C21820182   4.512   7.957   6.173 -0.4313 -0.2104  0.3379
   63MOL   H21920183   4.312   7.914   6.197 -1.2170  0.8941 -0.4941
   63MOL   H22020184   4.206   8.026   6.022 -0.4506 -0.1637  0.3769
   63MOL   H22120185   4.215   0.010   5.998 -1.2960 -0.4678 -1.0913
   63MOL   H22220186   4.368   0.022   6.215  1.6115  0.0017 -0.8652
   63MOL   H22320187   4.442   8.255   6.308  0.2886  2.1573 -0.3459
   63MOL   H22420188   4.499   7.976   6.066 -0.7784  0.9488  0.5706
   63MOL   H22520189   4.590   8.025   6.208 -0.2580 -0.2257 -0.0220
   63MOL   C22620190   4.567   7.804   6.187 -0.0786 -0.2499 -0.3286
   63MOL   C22720191   4.450   7.708   6.181  0.9713 -0.1835 -0.7253
   63MOL   C22820192   4.393   7.654   6.300  0.1764 -0.7014 -0.0030
   63MOL   C22920193   4.288   7.561   6.295  0.4052 -0.1707  0.1238
   63MOL  Cl23020194   4.223   7.489   6.433  0.2673  0.4064 -0.3151
   63MOL   C23120195   4.222   7.543   6.171 -0.6540  0.3627 -1.0087
   63MOL   C23220196   4.265   7.613   6.056 -0.3330 -0.3277  0.1081
   63MOL   C23320197   4.382   7.690   6.058 -1.2942  0.3215  0.0281
   63MOL   C23420198   4.677   7.783   6.078 -0.4918  0.8506 -0.2594
   63MOL   H23520199   4.619   7.788   6.281 -1.2956 -0.1474  0.3777
   63MOL   H23620200   4.417   7.680   6.402 -1.2245  0.2699  0.0933
   63MOL   H23720201   4.125   7.496   6.173 -0.6360  0.2979  2.0653
   63MOL   H23820202   4.209   7.589   5.967  0.3423  3.5839 -1.4536
   63MOL   H23920203   4.436   7.728   5.972  1.0888  2.2182  2.2758
   63MOL   H24020204   4.635   7.819   5.984 -0.7648 -0.2693 -0.5689
   63MOL   H24120205   4.757   7.855   6.099  0.7214 -0.5610  0.0490
   63MOL   C24220206   4.728   7.639   6.057 -0.3545 -0.6681  0.0288
   63MOL   C24320207   4.807   7.644   5.929  0.0800 -0.0905  0.3244
   63MOL   C24420208   4.758   7.583   5.810 -0.1459 -0.5931 -0.5606
   63MOL   C24520209   4.831   7.595   5.691  0.1016  0.2885  0.1364
   63MOL  Cl24620210   4.759   7.537   5.545  0.0240 -0.1168 -0.0328
   63MOL   C24720211   4.950   7.662   5.688  0.9800 -0.1987 -0.4312
   63MOL   C24820212   5.005   7.715   5.802 -0.4987  0.0020  0.2624
   63MOL   C24920213   4.935   7.707   5.923  0.7207 -0.0452 -0.2074
   63MOL   C25020214   4.808   7.586   6.178 -0.0239  0.6931  0.2365
   63MOL   H25120215   4.639   7.576   6.046  0.3608 -1.6052 -0.4235
   63MOL   H25220216   4.658   7.542   5.814 -0.4470  0.1199 -0.5223
   63MOL   H25320217   5.008   7.665   5.597  1.5387  2.9269 -0.0361
   63MOL   H25420218   5.105   7.755   5.799 -0.4542 -0.2189 -2.8249
   63MOL   H25520219   4.982   7.747   6.012  0.1275 -0.0687  0.1200
   63MOL   H25620220   4.900   7.547   6.134 -0.9800 -0.0316 -1.1844
   63MOL   H25720221   4.838   7.667   6.244  0.8093  0.6845 -0.1190
   63MOL   C25820222   4.738   7.474   6.258 -0.4553  0.0002  0.6327
   63MOL   C25920223   4.697   7.364   6.154 -0.6512 -0.5166  0.5204
   63MOL   C26020224   4.562   7.326   6.139 -0.5000 -0.1347  0.7055
   63MOL   C26120225   4.525   7.234   6.041  0.5561  1.0945 -0.4264
   63MOL  Cl26220226   4.356   7.193   6.029  0.1778 -0.1107  0.1098
   63MOL   C26320227   4.624   7.176   5.952  0.1143  0.5159  0.0856
   63MOL   C26420228   4.756   7.215   5.965  0.3980  0.4143 -0.7339
   63MOL   C26520229   4.799   7.305   6.067  0.0590 -0.4589 -1.0758
   63MOL   C26620230   4.814   7.412   6.375  0.1883 -0.5568 -0.3759
   63MOL   H26720231   4.647   7.517   6.300 -0.9950 -0.3582 -0.1606
   63MOL   H26820232   4.487   7.363   6.208 -0.4891 -1.2180  1.3177
   63MOL   H26920233   4.587   7.104   5.880 -2.9051  3.4131 -1.3993
   63MOL   H27020234   4.832   7.176   5.899  1.9056 -2.3766  2.4748
   63MOL   H27120235   4.904   7.321   6.086 -0.0562 -0.6307 -0.2593
   63MOL   H27220236   4.770   7.324   6.423  1.0731  0.6931  2.8629
   63MOL   H27320237   4.915   7.391   6.340  1.7182 -0.9510  3.9791
   63MOL   C27420238   4.842   7.516   6.482  0.1516 -0.2800  0.2892
   63MOL   C27520239   4.714   7.579   6.541  0.1841  0.2240  0.0425
   63MOL   C27620240   4.711   7.713   6.581 -1.0898  0.0013  0.4058
   63MOL   C27720241   4.603   7.756   6.658  0.2177  0.0288  0.2069
   63MOL  Cl27820242   4.606   7.914   6.715  0.0441 -0.2851  0.2101
   63MOL   C27920243   4.495   7.667   6.691 -0.1919 -0.0557 -0.1451
   63MOL   C28020244   4.511   7.529   6.659  1.0307  0.0202  0.4072
   63MOL   C28120245   4.611   7.483   6.575 -0.6637 -0.6762  0.4490
   63MOL   C28220246   4.921   7.456   6.598  0.0241 -0.0096  0.1478
   63MOL   H28320247   4.902   7.598   6.444 -0.7395  0.8867  1.3640
   63MOL   H28420248   4.795   7.777   6.556 -0.2622 -1.0226  0.5502
   63MOL   H28520249   4.410   7.699   6.749 -0.3463  0.4571 -0.6509
   63MOL   H28620250   4.441   7.459   6.702  1.9267 -0.9804  0.2562
   63MOL   H28720251   4.613   7.384   6.531  0.8725 -0.4245 -0.0979
   63MOL   H28820252   4.898   7.518   6.685 -1.5313  0.0359 -0.2692
   63MOL   H28920253   4.865   7.367   6.627  0.6450 -0.1184  1.0175
   63MOL   C29020254   5.076   7.430   6.585  0.4277  0.6216 -0.5264
   63MOL   C29120255   5.164   7.556   6.558  0.0860 -0.0162  0.1425
   63MOL   C29220256   5.163   7.663   6.647  0.3110  0.3690  0.6237
   63MOL   C29320257   5.250   7.773   6.627 -0.2935 -0.0579 -0.1683
   63MOL  Cl29420258   5.246   7.902   6.744  0.2316  0.1550 -0.2520
   63MOL   C29520259   5.337   7.780   6.520  1.0559  0.1962  0.0605
   63MOL   C29620260   5.340   7.673   6.428 -0.0383  0.2000  0.7062
   63MOL   C29720261   5.250   7.564   6.442  0.5509  0.4923  0.1213
   63MOL   C29820262   5.128   7.341   6.707  0.4240  0.0037 -0.2360
   63MOL   H29920263   5.082   7.375   6.490 -1.3631  1.3313 -1.0740
   63MOL   H30020264   5.096   7.662   6.732  0.2801 -1.4375  0.5982
   63MOL   H30120265   5.400   7.867   6.521  0.4144  0.6653  1.3485
   63MOL   H30220266   5.414   7.681   6.349 -1.3425  1.9077 -0.3978
   63MOL   H30320267   5.253   7.486   6.368 -0.4971 -2.1570  2.7681
   63MOL   H30420268   5.122   7.397   6.800 -2.6125 -0.0662 -0.3688
   63MOL   H30520269   5.054   7.267   6.737  1.4136 -0.0926  2.1289
   63MOL   C30620270   5.273   7.279   6.690 -0.1309  0.3824  0.2411
   63MOL   C30720271   5.307   7.208   6.818  0.6596 -0.7014  1.2455
   63MOL   C30820272   5.234   7.099   6.867  0.0352  0.2002  0.3921
   63MOL   C30920273   5.274   7.040   6.991 -0.6224 -0.2670 -0.0762
   63MOL  Cl31020274   5.182   6.903   7.065  0.2552 -0.1817  0.3165
   63MOL   C31120275   5.383   7.097   7.055  0.5693  0.0997  0.2407
   63MOL   C31220276   5.455   7.203   7.013 -0.0073 -0.3357  0.2800
   63MOL   C31320277   5.421   7.254   6.888  0.1459  0.3371  0.3171
   63MOL   C31420278   5.283   7.181   6.574 -0.1551  0.5498  0.2746
   63MOL   H31520279   5.346   7.359   6.677 -1.1750  1.4812  1.0484
   63MOL   H31620280   5.156   7.069   6.798  0.3583  1.3978 -0.5203
   63MOL   H31720281   5.402   7.051   7.151 -1.7381  0.4927  0.9128
   63MOL   H31820282   5.531   7.257   7.067  0.1177  0.1021 -0.3244
   63MOL   H31920283   5.479   7.336   6.848  1.1980 -0.4088  0.2972
   63MOL   H32020284   5.378   7.128   6.570  0.5189  1.8289 -1.2960
   63MOL   H32120285   5.200   7.110   6.570  0.2133  0.1427 -0.3716
   63MOL   H32220286   5.280   7.248   6.487  1.4384  0.7850  0.3828
   64MOL     C120287   2.669   1.309   8.149 -0.1871 -0.1383  0.9024
   64MOL     C220288   2.700   1.320   8.297  0.8207  0.2427  0.3993
   64MOL     C320289   2.779   1.419   8.349  0.8653 -0.0011 -0.8374
   64MOL     C420290   2.804   1.436   0.054  0.1803  0.1782  0.5499
   64MOL    Cl520291   2.905   1.560   0.123  0.2527 -0.2669  0.0264
   64MOL     C620292   2.732   1.350   0.138  0.4379 -0.5934 -0.2563
   64MOL     C720293   2.658   1.243   0.088 -0.5327  0.2522 -0.4507
   64MOL     C820294   2.649   1.222   8.385  0.1830  0.8304 -0.3793
   64MOL     C920295   2.785   1.251   8.071  0.0981 -0.1039  0.0944
   64MOL    H1020296   2.643   1.407   8.109  1.2216  0.5224  1.5532
   64MOL    H1120297   2.831   1.482   8.277  2.8846 -0.2595  0.3447
   64MOL    H1220298   2.750   1.351   0.245 -1.4971 -2.4848  0.1126
   64MOL    H1320299   2.616   1.170   0.155  2.1321 -0.2917  0.7253
   64MOL    H1420300   2.592   1.134   8.358  1.1839 -0.0806  0.4295
   64MOL    H1520301   2.872   1.316   8.075 -0.8011  1.1353 -0.3319
   64MOL    H1620302   2.821   1.158   8.115 -1.8688 -2.2099 -2.6099
   64MOL    H1720303   2.578   1.251   8.140 -1.2852  1.4928  1.2202
   64MOL    C1820304   2.738   1.232   7.925 -0.0281 -0.6410  0.2108
   64MOL    C1920305   2.794   1.338   7.830  0.1608 -0.3841 -0.6456
   64MOL    C2020306   2.730   1.466   7.808  0.4234 -0.4874 -0.1427
   64MOL    C2120307   2.770   1.563   7.719  0.1485  0.4947 -0.6220
   64MOL   Cl2220308   2.671   1.703   7.702  0.1454  0.2065 -0.3671
   64MOL    C2320309   2.889   1.534   7.648 -0.1570 -0.1420 -0.0742
   64MOL    C2420310   2.959   1.409   7.657  0.2196 -0.4040 -0.3432
   64MOL    C2520311   2.914   1.309   7.751 -0.0578  0.5218 -0.2515
   64MOL    C2620312   2.758   1.089   7.871 -0.2031  0.0266  0.2138
   64MOL    H2720313   2.634   1.262   7.908  0.1500 -0.2383 -0.1788
   64MOL    H2820314   2.635   1.476   7.858  1.3771 -0.9254  1.8264
   64MOL    H2920315   2.924   1.610   7.579  0.2206  1.2037  1.5793
   64MOL    H3020316   3.046   1.388   7.597 -0.8117 -0.0290 -1.9809
   64MOL    H3120317   2.968   1.217   7.768 -2.1322 -0.7009 -0.0489
   64MOL    H3220318   2.750   1.077   7.763 -1.0793 -0.3228  0.3075
   64MOL    H3320319   2.863   1.072   7.893 -0.3672  0.1865  1.1667
   64MOL    C3420320   2.668   0.991   7.938 -0.1391  0.9055 -0.0726
   64MOL    C3520321   2.520   0.999   7.910  0.2024  0.1056  0.0478
   64MOL    C3620322   2.473   1.011   7.774  0.0851  0.8107  0.0255
   64MOL    C3720323   2.333   1.024   7.746  0.2465  0.3136  0.0004
   64MOL   Cl3820324   2.281   1.012   7.584 -0.0803 -0.2584 -0.5805
   64MOL    C3920325   2.245   1.037   7.857 -0.3279  0.5286  0.0037
   64MOL    C4020326   2.291   1.036   7.987  0.1737  0.2427 -0.0098
   64MOL    C4120327   2.428   1.014   8.010 -0.4210 -0.4271  0.2518
   64MOL    C4220328   2.717   0.845   7.907  0.7688  0.0917  0.1275
   64MOL    H4320329   2.672   1.021   8.042 -0.5112  2.7103 -0.5675
   64MOL    H4420330   2.539   0.997   7.690  0.1863 -2.2233  0.5496
   64MOL    H4520331   2.137   1.040   7.852 -0.3626  0.7797  0.8496
   64MOL    H4620332   2.228   1.038   8.075 -0.6675  2.4011 -0.6182
   64MOL    H4720333   2.466   1.015   8.111  0.1387  2.7227  0.0594
   64MOL    H4820334   2.667   0.821   7.814 -1.0298  0.6161  0.9363
   64MOL    H4920335   2.823   0.849   7.880  0.8722  0.5333  0.5695
   64MOL    C5020336   2.695   0.746   8.023 -0.0382 -0.1695 -0.4224
   64MOL    C5120337   2.708   0.606   7.976 -0.2470  0.4037  0.3247
   64MOL    C5220338   2.602   0.508   7.985  0.0244 -0.1243  0.4395
   64MOL    C5320339   2.624   0.380   7.927 -0.3749 -0.5481 -0.2152
   64MOL   Cl5420340   2.501   0.266   7.956 -0.0612 -0.4040 -0.1304
   64MOL    C5520341   2.739   0.347   7.862 -0.3693  0.7532 -0.7561
   64MOL    C5620342   2.840   0.441   7.857 -0.0457  0.2334  0.1735
   64MOL    C5720343   2.831   0.571   7.911 -0.0491  0.6122 -0.4294
   64MOL    C5820344   2.796   0.780   8.142 -0.1681 -0.5494 -0.0222
   64MOL    H5920345   2.594   0.756   8.063  0.4983  1.1166  0.6757
   64MOL    H6020346   2.511   0.531   8.038 -0.7084 -0.2860 -0.7213
   64MOL    H6120347   2.769   0.248   7.829  1.1960  1.4302 -1.4536
   64MOL    H6220348   2.933   0.415   7.807 -1.1995 -1.7069 -1.0140
   64MOL    H6320349   2.917   0.636   7.916  0.5313 -0.2481  1.2471
   64MOL    H6420350   2.894   0.752   8.102  1.5538  3.6331  0.9210
   64MOL    H6520351   2.807   0.887   8.158  0.8193 -1.0003  2.5772
   64MOL    C6620352   2.778   0.707   8.278 -0.2339 -0.1625 -0.3202
   64MOL    C6720353   2.899   0.735   8.366 -0.0531 -0.1997 -0.2824
   64MOL    C6820354   2.916   0.862   8.432  0.5213  0.0500  0.5309
   64MOL    C6920355   3.011   0.881   0.097  0.9520  0.0595  0.9000
   64MOL   Cl7020356   3.025   1.036   0.172  0.2516  0.0659 -0.0748
   64MOL    C7120357   3.110   0.783   0.121  0.1752 -0.2434 -0.4461
   64MOL    C7220358   3.106   0.663   0.044 -0.3421  0.3012  0.2120
   64MOL    C7320359   2.998   0.638   8.393  0.1857  0.4100 -0.1665
   64MOL    C7420360   2.639   0.734   8.345  1.2325  0.0083 -0.0399
   64MOL    H7520361   2.777   0.601   8.253 -3.6438 -0.8135  2.2348
   64MOL    H7620362   2.843   0.941   8.421 -0.5200 -0.7866  1.2578
   64MOL    H7720363   3.195   0.807   0.183  0.3763 -0.7790 -0.5109
   64MOL    H7820364   3.183   0.589   0.060 -0.0717  0.2823 -1.1376
   64MOL    H7920365   2.989   0.543   8.344 -1.0433  0.0244  0.7991
   64MOL    H8020366   2.618   0.832   8.388 -1.4756 -0.1393 -0.9080
   64MOL    H8120367   2.564   0.725   8.267 -0.2764  1.0026  1.2681
   64MOL    C8220368   2.609   0.634   0.020 -0.1549  0.3847  0.3138
   64MOL    C8320369   2.671   0.679   0.154  0.5152 -0.3607 -0.2251
   64MOL    C8420370   2.751   0.582   0.221  0.1302 -0.6262 -0.5112
   64MOL    C8520371   2.827   0.618   0.338  0.3782  0.3043 -0.1015
   64MOL   Cl8620372   2.923   0.521   0.438  0.1101 -0.1378 -0.3551
   64MOL    C8720373   2.818   0.748   0.391  0.4118 -0.0951  0.4181
   64MOL    C8820374   2.737   0.844   0.327 -0.5390 -0.8136 -0.2803
   64MOL    C8920375   2.663   0.809   0.213 -0.5021  0.4063  0.0409
   64MOL    C9020376   2.465   0.613   0.049  0.1154 -0.6564 -0.4893
   64MOL    H9120377   2.655   0.539   8.426  2.0555  1.3497  0.6112
   64MOL    H9220378   2.761   0.482   0.182 -2.0246 -1.0993  0.0967
   64MOL    H9320379   2.892   0.780   0.463 -0.3661  1.8366  0.3968
   64MOL    H9420380   2.736   0.945   0.367  0.0532 -0.7509 -0.4127
   64MOL    H9520381   2.613   0.885   0.154 -3.4218 -1.9943 -0.7367
   64MOL    H9620382   2.445   0.567   0.146 -1.9825  1.1230 -0.0298
   64MOL    H9720383   2.418   0.711   0.058  0.7192 -0.5861  2.3804
   64MOL    C9820384   2.377   0.530   8.386  0.8827  1.4246 -0.6718
   64MOL    C9920385   2.388   0.379   8.416  0.4942  0.1112 -0.2579
   64MOL   C10020386   2.297   0.316   0.068 -0.2521 -0.1709  0.9349
   64MOL   C10120387   2.311   0.178   0.094  0.3187  0.0882  0.3834
   64MOL  Cl10220388   2.195   0.092   0.187  0.3495  0.1878 -0.0328
   64MOL   C10320389   2.414   0.107   0.035 -0.7181 -0.7649  0.0832
   64MOL   C10420390   2.503   0.172   8.381 -0.1163  0.6036 -0.0176
   64MOL   C10520391   2.487   0.306   8.354 -0.0060 -0.5231 -0.0985
   64MOL   C10620392   2.230   0.582   8.375 -0.2150 -0.4701 -0.5040
   64MOL   H10720393   2.415   0.534   8.284  2.9790 -0.7000 -0.0309
   64MOL   H10820394   2.222   0.379   0.115  0.2844  0.8639  0.4351
   64MOL   H10920395   2.426   0.002   0.057  2.3985 -0.2148  1.2521
   64MOL   H11020396   2.584   0.118   8.333  1.6232  0.6935  2.6373
   64MOL   H11120397   2.544   0.353   8.275 -0.0572  0.9893  0.7485
   64MOL   H11220398   2.170   0.491   8.371 -1.9440  0.4707  2.0693
   64MOL   H11320399   2.212   0.626   0.038 -0.8288 -1.9514  0.0651
   64MOL   C11420400   2.181   0.677   8.263 -0.6089  0.2613  0.8103
   64MOL   C11520401   2.194   0.598   8.126  0.9089  0.2385  0.0946
   64MOL   C11620402   2.256   0.656   8.013  0.6874  0.0369  0.2246
   64MOL   C11720403   2.280   0.585   7.896  0.0171 -0.0970  0.0839
   64MOL  Cl11820404   2.374   0.648   7.764  0.2243 -0.1066  0.2805
   64MOL   C11920405   2.229   0.455   7.879 -0.4399  0.6852 -0.0829
   64MOL   C12020406   2.141   0.404   7.977  0.0055 -0.5356 -0.4764
   64MOL   C12120407   2.120   0.478   8.104  0.0460 -0.1315 -0.0132
   64MOL   C12220408   2.032   0.715   8.298  0.1552  0.1322  0.3979
   64MOL   H12320409   2.241   0.768   8.264 -0.1336 -0.0234 -0.8649
   64MOL   H12420410   2.311   0.749   8.016 -2.7905  2.2264 -0.5612
   64MOL   H12520411   2.257   0.402   7.789  0.3899 -0.0390  0.5917
   64MOL   H12620412   2.098   0.305   7.968  0.3220 -0.6137 -1.1096
   64MOL   H12720413   2.074   0.435   8.192  1.8338 -2.8933 -0.3665
   64MOL   H12820414   1.967   0.629   8.308  0.1703 -0.2242 -2.1762
   64MOL   H12920415   2.042   0.760   8.396 -1.4946  1.9039 -0.2136
   64MOL   C13020416   1.971   0.824   8.204  0.0374  0.4489 -0.0879
   64MOL   C13120417   1.924   0.760   8.068 -0.2521  0.2372  0.4467
   64MOL   C13220418   1.982   0.792   7.947 -0.1633 -0.2465  0.2254
   64MOL   C13320419   1.935   0.747   7.826 -0.2831  0.5038  0.0409
   64MOL  Cl13420420   2.012   0.801   7.683 -0.3319 -0.3092 -0.3205
   64MOL   C13520421   1.826   0.659   7.821  0.3862  0.3409 -0.7818
   64MOL   C13620422   1.766   0.615   7.941  0.3015 -0.0206  0.3638
   64MOL   C13720423   1.817   0.662   8.061  0.1106  0.1131 -0.2978
   64MOL   C13820424   1.859   0.897   8.280  0.0449  0.8369  0.3129
   64MOL   H13920425   2.039   0.906   8.181  0.0268 -0.2297 -2.7884
   64MOL   H14020426   2.072   0.851   7.943  0.2318 -0.7550  1.4899
   64MOL   H14120427   1.805   0.614   7.725 -0.7052  0.7040 -0.7140
   64MOL   H14220428   1.691   0.537   7.939 -1.4768  1.6074  1.9982
   64MOL   H14320429   1.769   0.623   8.150  0.6061  1.3396  0.5155
   64MOL   H14420430   1.769   0.906   8.221  0.2032  2.2221  0.2687
   64MOL   H14520431   1.825   0.830   8.359 -1.0077  0.7905 -0.1792
   64MOL   C14620432   1.884   1.038   8.330  0.0454  0.7181 -0.0958
   64MOL   C14720433   1.978   1.030   0.009 -0.3301  0.2143  0.0941
   64MOL   C14820434   2.114   1.012   8.420  0.0102 -0.0361 -0.3352
   64MOL   C14920435   2.207   1.006   0.090 -0.4116 -0.2611 -0.4601
   64MOL  Cl15020436   2.381   0.987   0.063 -0.1705  0.1370 -0.3416
   64MOL   C15120437   2.164   1.000   0.221  0.2711  0.1558  0.0675
   64MOL   C15220438   2.025   1.009   0.246  1.0998 -0.2527  0.6136
   64MOL   C15320439   1.933   1.024   0.143 -0.2394  0.4388  0.9081
   64MOL   C15420440   1.926   1.140   8.224  0.3019  0.1596  0.0455
   64MOL   H15520441   1.787   1.065   8.374  0.0651 -2.1996  1.8821
   64MOL   H15620442   2.149   1.015   8.318 -1.3505  1.3422 -0.7880
   64MOL   H15720443   2.233   0.972   0.300 -1.0733 -2.6704  0.3243
   64MOL   H15820444   1.985   1.000   0.346 -2.3606  2.6001 -0.4328
   64MOL   H15920445   1.828   1.023   0.168 -0.7372  2.6752 -0.8916
   64MOL   H16020446   2.022   1.112   8.180  0.6202 -1.2803  1.5950
   64MOL   H16120447   1.856   1.138   8.140  0.1627 -1.4449  0.1813
   64MOL   C16220448   1.930   1.288   8.265 -0.1315  0.3381  0.3802
   64MOL   C16320449   2.074   1.341   8.276  0.0759 -0.2933  0.3494
   64MOL   C16420450   2.148   1.378   8.162 -0.1588  0.3767  0.8176
   64MOL   C16520451   2.286   1.403   8.176 -0.4113 -0.0524 -0.4568
   64MOL  Cl16620452   2.370   1.443   8.033  0.3145 -0.0379  0.0998
   64MOL   C16720453   2.345   1.410   8.305  1.2544  0.5233 -0.0090
   64MOL   C16820454   2.266   1.382   8.419 -0.9662 -0.6269 -0.1304
   64MOL   C16920455   2.130   1.341   8.403 -0.6104 -0.8465 -0.3525
   64MOL   C17020456   1.843   1.385   8.180 -0.5875  0.2585 -0.0548
   64MOL   H17120457   1.878   1.281   8.361 -1.4516 -1.7545 -0.4319
   64MOL   H17220458   2.105   1.373   8.063 -0.2152 -0.8751  0.9069
   64MOL   H17320459   2.447   1.441   8.321  0.3626  1.8301  3.5476
   64MOL   H17420460   2.305   1.377   0.084 -1.9131  1.1796  0.3451
   64MOL   H17520461   2.081   1.311   0.059  1.0323 -0.1553  0.7750
   64MOL   H17620462   1.876   1.375   8.077  1.8361  1.3776  0.5699
   64MOL   H17720463   1.741   1.347   8.180 -0.9694  1.2782  0.0946
   64MOL   C17820464   1.836   1.530   8.222  0.3592 -0.1537 -0.8647
   64MOL   C17920465   1.843   1.619   8.098  0.5518 -0.4140 -1.1152
   64MOL   C18020466   1.753   1.600   7.992 -0.3476 -0.3301 -0.0957
   64MOL   C18120467   1.760   1.678   7.876  0.9483 -0.8115  0.5058
   64MOL  Cl18220468   1.638   1.651   7.759  0.1287  0.5529 -0.0619
   64MOL   C18320469   1.858   1.780   7.866  0.0849 -0.4309  0.3571
   64MOL   C18420470   1.944   1.809   7.970 -0.4440  0.2506 -0.5724
   64MOL   C18520471   1.931   1.732   8.091 -0.2051  0.2420  0.1963
   64MOL   C18620472   1.717   1.569   8.309  0.2018 -0.0919  0.1297
   64MOL   H18720473   1.931   1.558   8.268  0.1100 -0.8830  0.1200
   64MOL   H18820474   1.676   1.526   8.002  1.2728 -2.1964 -1.0818
   64MOL   H18920475   1.857   1.836   7.773  0.4798 -1.7931 -0.4745
   64MOL   H19020476   2.011   1.893   7.964  0.1121  0.0107  1.5335
   64MOL   H19120477   1.994   1.760   8.174  1.4782  1.9920 -1.6294
   64MOL   H19220478   1.721   1.676   8.333 -1.6540  0.2338 -0.9148
   64MOL   H19320479   1.629   1.562   8.245  1.2758  0.8522 -1.4959
   64MOL   C19420480   1.694   1.482   8.433  0.6789 -0.2332 -0.1455
   64MOL   C19520481   1.802   1.494   0.103  0.0592  0.1836 -0.1477
   64MOL   C19620482   1.894   1.601   0.099 -0.2440 -0.2109 -0.8594
   64MOL   C19720483   2.004   1.608   0.189 -0.1874 -0.1769  0.1517
   64MOL  Cl19820484   2.127   1.731   0.185 -0.1264  0.3932  0.3439
   64MOL   C19920485   2.021   1.507   0.283  0.2976  0.6845  0.6136
   64MOL   C20020486   1.919   1.408   0.294 -0.6415  0.3816  0.0575
   64MOL   C20120487   1.815   1.398   0.202 -0.6330  0.2147 -0.0889
   64MOL   C20220488   1.549   1.497   0.047  0.2215  0.0662 -0.1925
   64MOL   H20320489   1.699   1.376   8.409 -1.6814  0.3870 -3.7235
   64MOL   H20420490   1.888   1.674   0.020 -0.7051  0.3189 -0.3460
   64MOL   H20520491   2.096   1.516   0.360  1.4422  2.1307 -0.6223
   64MOL   H20620492   1.918   1.335   0.374  0.2856 -2.6112 -2.5568
   64MOL   H20720493   1.756   1.308   0.209 -3.0529  1.3529 -3.8765
   64MOL   H20820494   1.472   1.514   8.407 -0.1794 -3.1324 -0.5974
   64MOL   H20920495   1.517   1.395   0.071 -0.4394 -0.2240 -2.2592
   64MOL   C21020496   1.510   1.595   0.159 -0.2879  0.3735  0.0620
   64MOL   C21120497   1.499   1.739   0.104 -0.3603  0.4660  0.2879
   64MOL   C21220498   1.593   1.842   0.128  0.1957  0.0447 -0.0896
   64MOL   C21320499   1.588   1.961   0.068 -0.2845 -0.5043  0.1836
   64MOL  Cl21420500   1.716   2.072   0.086  0.2107 -0.1806 -0.1761
   64MOL   C21520501   1.475   1.986   8.424  0.0359  0.0485  0.3608
   64MOL   C21620502   1.375   1.893   8.402  0.6792  0.8134  0.0488
   64MOL   C21720503   1.385   1.767   0.026 -0.8756  0.5268  0.2557
   64MOL   C21820504   1.383   1.558   0.236  0.5300  0.2014 -0.6759
   64MOL   H21920505   1.593   1.605   0.229  1.4203  0.8135 -1.9714
   64MOL   H22020506   1.673   1.808   0.192 -0.2479  0.5686  0.7553
   64MOL   H22120507   1.461   2.084   8.381  2.1141  0.6817  1.0597
   64MOL   H22220508   1.278   1.917   8.361  1.6780  3.1898 -0.9864
   64MOL   H22320509   1.310   1.691   0.007  1.8090 -1.9509 -0.8459
   64MOL   H22420510   1.345   1.644   0.292  1.6619  0.7696 -0.7683
   64MOL   H22520511   1.305   1.528   0.166  0.4309  0.2183 -0.5731
   64MOL   C22620512   1.411   1.449   0.344 -1.1735 -0.2300  0.2235
   64MOL   C22720513   1.502   1.521   0.452  0.2667  0.1733 -0.4333
   64MOL   C22820514   1.434   1.611   0.535  0.2234 -0.0815  0.2932
   64MOL   C22920515   1.500   1.675   0.640 -0.6051 -0.1174 -0.3170
   64MOL  Cl23020516   1.415   1.784   0.751  0.0090 -0.0290  0.2014
   64MOL   C23120517   1.641   1.656   0.650  0.5161  0.3091  0.3640
   64MOL   C23220518   1.710   1.562   0.576 -0.1138  0.4835 -0.3842
   64MOL   C23320519   1.640   1.490   0.476 -0.5689  0.0520 -0.3620
   64MOL   C23420520   1.294   1.377   0.420  0.0187 -0.5581  0.0398
   64MOL   H23520521   1.488   1.381   0.307 -0.7444  0.0350  0.6292
   64MOL   H23620522   1.328   1.627   0.519  0.3346  0.2059 -0.1706
   64MOL   H23720523   1.694   1.719   0.721 -0.1125 -1.1381  2.1462
   64MOL   H23820524   1.818   1.569   0.578 -0.1497  1.7864 -2.1123
   64MOL   H23920525   1.679   1.411   0.415 -2.8901 -1.5665  0.2094
   64MOL   H24020526   1.331   1.329   0.511  2.1025 -0.5796 -0.7864
   64MOL   H24120527   1.220   1.453   0.446 -1.7441 -2.7254  1.5199
   64MOL   C24220528   1.234   1.252   0.335  0.0069 -0.4761 -0.0289
   64MOL   C24320529   1.338   1.140   0.322 -0.8983  0.2152 -0.0293
   64MOL   C24420530   1.373   1.101   0.190 -0.1637  0.2185  0.8343
   64MOL   C24520531   1.472   1.010   0.166 -0.0355  0.2899  0.4458
   64MOL  Cl24620532   1.523   0.973   0.008  0.4860 -0.0709  0.2251
   64MOL   C24720533   1.547   0.957   0.269 -0.0011  0.1559 -0.1235
   64MOL   C24820534   1.512   0.991   0.401  0.2202 -0.2901  0.3739
   64MOL   C24920535   1.402   1.079   0.432 -0.0386 -0.2822 -0.1463
   64MOL   C25020536   1.095   1.203   0.382  0.6213 -0.0562  0.3628
   64MOL   H25120537   1.225   1.304   0.239 -1.3744 -2.9283 -1.2786
   64MOL   H25220538   1.325   1.154   0.109  0.9181 -3.1949 -2.1845
   64MOL   H25320539   1.627   0.888   0.248 -0.4834  0.2044 -2.1950
   64MOL   H25420540   1.555   0.932   0.481 -1.6776 -2.9545 -0.4977
   64MOL   H25520541   1.376   1.109   0.533 -0.7734  0.4270 -0.5409
   64MOL   H25620542   1.062   1.118   0.322 -0.5888 -0.6517  1.8610
   64MOL   H25720543   1.099   1.160   0.482 -0.2827  1.2175  0.9579
   64MOL   C25820544   0.980   1.303   0.400 -0.4928 -0.1682 -0.0818
   64MOL   C25920545   0.965   1.383   0.270  0.1096  0.0254 -0.1825
   64MOL   C26020546   1.002   1.519   0.253 -0.0902  0.4651 -0.9174
   64MOL   C26120547   0.993   1.576   0.125 -0.2827  0.1676 -0.1391
   64MOL  Cl26220548   1.037   1.744   0.104 -0.1177  0.1880  0.0054
   64MOL   C26320549   0.933   1.508   0.014  0.2178 -0.0450 -0.0464
   64MOL   C26420550   0.881   1.377   0.036  0.4196 -0.3150  0.1430
   64MOL   C26520551   0.901   1.318   0.163  0.3662 -0.4510  0.3166
   64MOL   C26620552   0.847   1.248   0.457 -0.2520  0.2430  0.4642
   64MOL   H26720553   1.003   1.378   0.476 -0.8672  0.8215 -0.9263
   64MOL   H26820554   1.043   1.566   0.341 -1.5336 -0.5437  0.3221
   64MOL   H26920555   0.929   1.550   8.350  0.4183  2.1132  0.8397
   64MOL   H27020556   0.828   1.332   8.389 -0.5992 -1.0659  1.2029
   64MOL   H27120557   0.854   1.223   0.182 -2.3816  0.9709  0.8747
   64MOL   H27220558   0.804   1.171   0.394  0.7310 -1.4498  1.7891
   64MOL   H27320559   0.868   1.187   0.545 -1.6149 -0.0211  0.6151
   64MOL   C27420560   0.738   1.360   0.477 -0.2110  0.7741 -0.4958
   64MOL   C27520561   0.614   1.337   0.386  0.0684  0.4904 -0.6789
   64MOL   C27620562   0.618   1.412   0.263  0.4216  0.2859  0.5967
   64MOL   C27720563   0.516   1.393   0.171  0.5356 -0.3175 -0.5888
   64MOL  Cl27820564   0.518   1.472   0.017 -0.0575  0.2890 -0.0321
   64MOL   C27920565   0.407   1.303   0.200 -0.0400  0.0812  0.2812
   64MOL   C28020566   0.406   1.235   0.318  0.0948 -1.0241 -0.1993
   64MOL   C28120567   0.516   1.248   0.408  0.6624 -0.3224 -0.4652
   64MOL   C28220568   0.698   1.357   0.625  0.3674  0.9397  0.1540
   64MOL   H28320569   0.777   1.457   0.447 -3.9541  1.0073 -5.1628
   64MOL   H28420570   0.701   1.478   0.243  0.3923  0.1377 -0.0193
   64MOL   H28520571   0.323   1.292   0.132 -0.3217  2.6215  0.1430
   64MOL   H28620572   0.335   1.160   0.349 -0.9333 -0.2356 -0.6289
   64MOL   H28720573   0.522   1.189   0.498  0.5232 -1.0835 -0.9519
   64MOL   H28820574   0.658   1.256   0.637  0.8052  0.6158 -1.0045
   64MOL   H28920575   0.790   1.364   0.684  0.2368  0.6513  0.3894
   64MOL   C29020576   0.600   1.456   0.671  0.0979 -0.2566 -0.8263
   64MOL   C29120577   0.503   1.390   0.764  0.2485 -0.4009  0.3552
   64MOL   C29220578   0.549   1.355   0.893  0.6872  0.4670  0.0974
   64MOL   C29320579   0.461   1.285   0.979  0.0066 -0.6403  0.0779
   64MOL  Cl29420580   0.526   1.227   1.125 -0.2449 -0.2392 -0.1166
   64MOL   C29520581   0.330   1.256   0.943 -0.2722 -1.0338  0.0857
   64MOL   C29620582   0.279   1.304   0.819  0.7705  0.3357  0.0901
   64MOL   C29720583   0.368   1.366   0.732  0.6366  0.4530 -0.7195
   64MOL   C29820584   0.657   1.584   0.742 -0.4458  0.1677  0.5220
   64MOL   H29920585   0.532   1.482   0.589  0.7386  0.8407 -1.0127
   64MOL   H30020586   0.653   1.370   0.917  0.4106  2.0035  0.3664
   64MOL   H30120587   0.262   1.199   1.004 -0.7233  0.0344  0.6067
   64MOL   H30220588   0.187   1.275   0.772  0.7122  2.4752 -1.1937
   64MOL   H30320589   0.325   1.407   0.642 -1.2181  1.4494  0.5814
   64MOL   H30420590   0.578   1.633   0.798  0.2681  3.9642 -1.6250
   64MOL   H30520591   0.728   1.561   0.821  1.7935 -0.7299 -1.6771
   64MOL   C30620592   0.734   1.689   0.654 -0.6763  1.0028  0.3196
   64MOL   C30720593   0.663   1.749   0.534 -0.0095  0.2281 -0.3683
   64MOL   C30820594   0.714   1.738   0.403  0.3549 -0.9543 -0.0570
   64MOL   C30920595   0.644   1.787   0.296 -1.8282 -0.0269  0.3016
   64MOL  Cl31020596   0.721   1.784   0.140 -0.6124  0.1416 -0.1697
   64MOL   C31120597   0.525   1.857   0.318  0.3449  0.1573 -0.2194
   64MOL   C31220598   0.478   1.887   0.449 -0.0365 -0.1562  1.0062
   64MOL   C31320599   0.543   1.827   0.556 -0.1284 -0.3366  0.2487
   64MOL   C31420600   0.783   1.800   0.743 -0.3279  0.3961 -0.2618
   64MOL   H31520601   0.825   1.641   0.618 -0.2720  0.2514  2.2862
   64MOL   H31620602   0.810   1.689   0.387  0.9924  0.0128  0.7553
   64MOL   H31720603   0.479   1.891   0.227  0.6853 -0.9205 -0.8067
   64MOL   H31820604   0.383   1.938   0.458 -0.5430 -1.5061  3.8753
   64MOL   H31920605   0.493   1.844   0.650 -1.9264  1.6972 -0.9883
   64MOL   H32020606   0.845   1.876   0.696  2.0443 -1.7868 -0.7550
   64MOL   H32120607   0.693   1.851   0.777  0.5907  3.0014 -1.5485
   64MOL   H32220608   0.833   1.764   0.833 -0.4907 -0.6769 -0.5967
   65MOL     C120609   3.451   0.335   1.669  0.0958  0.1692 -0.4637
   65MOL     C220610   3.586   0.264   1.661  0.0422 -0.3515 -0.5582
   65MOL     C320611   3.664   0.281   1.544 -0.0642 -0.2150  0.6338
   65MOL     C420612   3.786   0.209   1.531 -0.1696  0.1009  0.1599
   65MOL    Cl520613   3.883   0.224   1.387 -0.0199  0.3449 -0.0326
   65MOL     C620614   3.819   0.111   1.632  0.4312  0.1046  0.0902
   65MOL     C720615   3.739   0.102   1.751 -0.2720  0.1984 -0.3403
   65MOL     C820616   3.626   0.183   1.765 -0.2941  0.2861  0.0123
   65MOL     C920617   3.366   0.359   1.544  0.4168 -0.1762 -0.1209
   65MOL    H1020618   3.474   0.426   1.723  0.3846  0.6655 -1.4195
   65MOL    H1120619   3.635   0.347   1.464  0.2900 -2.0256 -1.0084
   65MOL    H1220620   3.907   0.054   1.608  1.5723  1.1141  1.7071
   65MOL    H1320621   3.760   0.035   1.833  1.0486  2.6968  1.4163
   65MOL    H1420622   3.559   0.170   1.849  1.0700 -1.7475  0.8251
   65MOL    H1520623   3.414   0.441   1.490 -0.2676 -0.5243 -1.2896
   65MOL    H1620624   3.366   0.272   1.478 -0.7575  0.4107 -0.9150
   65MOL    H1720625   3.391   0.275   1.737  0.8109  0.5017  0.4627
   65MOL    C1820626   3.216   0.409   1.564  0.1781 -0.1750 -0.0805
   65MOL    C1920627   3.206   0.514   1.673  0.7236  0.2474 -0.3057
   65MOL    C2020628   3.202   0.653   1.639  0.9399 -0.1853  0.2566
   65MOL    C2120629   3.157   0.752   1.731 -0.4740 -0.3032  0.4823
   65MOL   Cl2220630   3.136   0.908   1.661 -0.3558  0.1239 -0.0314
   65MOL    C2320631   3.122   0.711   1.864  0.1930 -0.6020  0.4366
   65MOL    C2420632   3.149   0.578   1.904  0.1951  0.7784  0.2534
   65MOL    C2520633   3.186   0.481   1.810  0.0525  0.4184 -0.1300
   65MOL    C2620634   3.153   0.459   1.432 -0.3274 -0.0762  0.0687
   65MOL    H2720635   3.155   0.330   1.606  0.0353  0.1180  0.2637
   65MOL    H2820636   3.217   0.682   1.536  0.5644  0.5372  0.3999
   65MOL    H2920637   3.079   0.773   1.941  1.0188 -0.1505  0.5412
   65MOL    H3020638   3.111   0.556   2.002  0.2381 -1.8944 -0.3114
   65MOL    H3120639   3.170   0.379   1.840 -1.1256  0.7741  0.4781
   65MOL    H3220640   3.059   0.510   1.455 -0.7079 -1.2230  1.1519
   65MOL    H3320641   3.227   0.524   1.386  0.7836 -1.1657  0.2923
   65MOL    C3420642   3.108   0.354   1.328  0.2232  0.4824 -0.6411
   65MOL    C3520643   2.973   0.278   1.369 -0.2960 -0.2011 -0.4971
   65MOL    C3620644   2.846   0.319   1.330  0.6644  0.5268  0.1290
   65MOL    C3720645   2.733   0.252   1.379  0.8769  0.1234 -0.1845
   65MOL   Cl3820646   2.587   0.294   1.305 -0.0833 -0.1580 -0.2538
   65MOL    C3920647   2.737   0.142   1.463 -0.1878  0.2738  0.0775
   65MOL    C4020648   2.859   0.108   1.517  1.1036  0.9103 -0.0120
   65MOL    C4120649   2.973   0.175   1.465  0.7567  0.1623  0.2672
   65MOL    C4220650   3.099   0.406   1.182  0.4006 -0.1694 -0.4836
   65MOL    H4320651   3.181   0.273   1.333 -2.0749 -1.7263 -1.6258
   65MOL    H4420652   2.828   0.392   1.253 -3.7488 -1.5216 -0.9252
   65MOL    H4520653   2.641   0.112   1.504  0.0667 -0.6374  0.0081
   65MOL    H4620654   2.862   0.033   1.595  1.1738  1.7687  0.8301
   65MOL    H4720655   3.066   0.140   1.506  0.0055 -1.4422  0.6479
   65MOL    H4820656   3.055   0.330   1.118 -1.2561 -1.4491  2.0609
   65MOL    H4920657   3.027   0.488   1.175 -0.4342 -1.0239 -2.2423
   65MOL    C5020658   3.230   0.456   1.123 -0.0588 -0.2040 -0.0453
   65MOL    C5120659   3.335   0.343   1.112  0.3961 -0.2905  0.2036
   65MOL    C5220660   3.310   0.238   1.018  0.3048  0.3417  0.1011
   65MOL    C5320661   3.416   0.148   0.987 -0.1616  0.3516  0.1102
   65MOL   Cl5420662   3.387   0.023   0.865  0.0890 -0.1372 -0.1028
   65MOL    C5520663   3.540   0.157   1.053  0.0419 -0.6683 -0.6202
   65MOL    C5620664   3.567   0.266   1.146 -0.0866 -0.2497  0.2485
   65MOL    C5720665   3.460   0.354   1.174  0.7872 -0.3728  0.1431
   65MOL    C5820666   3.218   0.531   0.987  0.3822  0.4003 -0.6642
   65MOL    H5920667   3.277   0.524   1.194 -0.8931 -0.7195  1.0247
   65MOL    H6020668   3.215   0.245   0.968  0.4982  0.3966 -0.2603
   65MOL    H6120669   3.622   0.089   1.036  1.0301  0.6862 -1.4262
   65MOL    H6220670   3.664   0.274   1.193 -1.0106  3.3461  1.6725
   65MOL    H6320671   3.484   0.433   1.244  1.1489  0.0862 -0.4937
   65MOL    H6420672   3.316   0.532   0.939 -0.7369  0.6688 -3.0704
   65MOL    H6520673   3.157   0.470   0.919 -0.1924  1.2987 -0.9700
   65MOL    C6620674   3.153   0.679   0.992  0.6278 -0.4891 -0.2547
   65MOL    C6720675   3.193   0.759   1.116  0.3371  0.2656 -0.2557
   65MOL    C6820676   3.319   0.823   1.127  0.1442  0.0069 -0.3257
   65MOL    C6920677   3.341   0.910   1.237  0.1032  0.1010  0.2122
   65MOL   Cl7020678   3.496   0.989   1.262 -0.2780  0.1163  0.0375
   65MOL    C7120679   3.241   0.932   1.336  0.5495 -0.1638 -0.2799
   65MOL    C7220680   3.113   0.873   1.319 -0.1987  0.2336  0.4128
   65MOL    C7320681   3.092   0.777   1.218 -0.2443  0.2932 -0.5790
   65MOL    C7420682   3.184   0.759   0.861 -0.0454  0.3124 -0.4986
   65MOL    H7520683   3.045   0.672   1.002  0.5057  2.9412  1.5288
   65MOL    H7620684   3.394   0.810   1.050  0.8922 -2.6736  0.8088
   65MOL    H7720685   3.257   0.994   1.423 -0.7550  1.1718 -0.9744
   65MOL    H7820686   3.036   0.908   1.386  0.9185  1.8499  0.8872
   65MOL    H7920687   3.005   0.714   1.223 -1.0223  1.3548 -0.6023
   65MOL    H8020688   3.154   0.863   0.872  2.7467  0.9471  1.5578
   65MOL    H8120689   3.290   0.770   0.839  0.0633 -0.8163 -0.6166
   65MOL    C8220690   3.115   0.699   0.734  0.2065  0.6077  0.6693
   65MOL    C8320691   2.966   0.697   0.747 -0.4868  0.1081 -0.1325
   65MOL    C8420692   2.897   0.818   0.748  0.3415 -0.1633  0.2174
   65MOL    C8520693   2.759   0.828   0.781  0.0081  0.8811  0.9198
   65MOL   Cl8620694   2.690   0.988   0.770  0.1991 -0.5457  0.2265
   65MOL    C8720695   2.694   0.714   0.832 -0.1425 -0.4751 -0.4285
   65MOL    C8820696   2.758   0.589   0.828 -0.3759  0.4341 -0.3419
   65MOL    C8920697   2.895   0.582   0.782  0.5382 -0.0875 -0.0171
   65MOL    C9020698   3.155   0.754   0.598 -0.6327  0.8612 -0.0364
   65MOL    H9120699   3.147   0.594   0.735  1.3541  0.9303 -0.3902
   65MOL    H9220700   2.948   0.911   0.727 -0.2377  0.5526  1.9027
   65MOL    H9320701   2.596   0.724   0.878  0.5582 -0.8281  1.1815
   65MOL    H9420702   2.714   0.500   0.870  1.3013 -0.3792 -0.2769
   65MOL    H9520703   2.949   0.488   0.784  4.1195  1.8604 -1.0064
   65MOL    H9620704   3.091   0.709   0.521  0.1583 -0.0534 -0.1776
   65MOL    H9720705   3.138   0.861   0.593  1.1922  1.0990 -2.2476
   65MOL    C9820706   3.300   0.729   0.555  0.3056  0.1006  0.2154
   65MOL    C9920707   3.322   0.577   0.525  0.1188  1.0957  0.1046
   65MOL   C10020708   3.276   0.522   0.404  0.5676 -0.2425 -0.2376
   65MOL   C10120709   3.301   0.387   0.371 -0.1872 -0.3939 -0.0089
   65MOL  Cl10220710   3.271   0.331   0.215 -0.1601 -0.2955  0.0138
   65MOL   C10320711   3.379   0.307   0.452 -0.9147 -0.0873 -0.5214
   65MOL   C10420712   3.419   0.355   0.578 -0.2004 -0.6996 -0.1948
   65MOL   C10520713   3.390   0.489   0.615 -0.1926  0.2873 -0.0263
   65MOL   C10620714   3.345   0.823   0.441  0.4734  0.6113  0.0594
   65MOL   H10720715   3.361   0.749   0.643 -0.7327  0.5943  0.8259
   65MOL   H10820716   3.228   0.577   0.325 -0.8368 -0.3126  0.5582
   65MOL   H10920717   3.401   0.208   0.414  0.1842 -0.2847  0.5817
   65MOL   H11020718   3.470   0.287   0.645  0.8058 -0.3524 -0.5955
   65MOL   H11120719   3.430   0.512   0.713  0.8975 -0.5586 -0.2756
   65MOL   H11220720   3.269   0.813   0.363  0.2253  2.0873  0.0913
   65MOL   H11320721   3.341   0.930   0.463  1.3956  0.4442  1.1051
   65MOL   C11420722   3.476   0.782   0.375 -1.0370 -0.1924 -0.1574
   65MOL   C11520723   3.500   0.845   0.236 -0.9455  0.5203  0.5594
   65MOL   C11620724   3.557   0.759   0.139  0.9523  0.3918  0.4323
   65MOL   C11720725   3.577   0.797   0.009 -0.5050 -0.2200 -0.9036
   65MOL  Cl11820726   3.663   0.707   8.327 -0.2857  0.1235  0.0989
   65MOL   C11920727   3.523   0.919   8.403  0.6207  0.1842 -0.6569
   65MOL   C12020728   3.466   1.015   0.064  0.1825  0.9997  0.2705
   65MOL   C12120729   3.458   0.971   0.202  0.2126 -0.0025 -0.8958
   65MOL   C12220730   3.596   0.810   0.468  0.0890  0.5537  0.2942
   65MOL   H12320731   3.469   0.680   0.337  1.0173 -0.5917  0.4309
   65MOL   H12420732   3.587   0.657   0.157 -1.3500  0.0989  2.9311
   65MOL   H12520733   3.532   0.958   8.303  1.1602 -0.3137 -0.7982
   65MOL   H12620734   3.430   1.111   0.030 -0.5267  0.2315 -1.1843
   65MOL   H12720735   3.405   1.036   0.269 -0.5199 -0.7157 -0.7669
   65MOL   H12820736   3.625   0.914   0.455  2.4303 -0.3325 -2.2728
   65MOL   H12920737   3.571   0.787   0.571  0.5507 -0.5680  0.1637
   65MOL   C13020738   3.728   0.730   0.440  0.3767 -0.0497 -0.8721
   65MOL   C13120739   3.845   0.784   0.523 -0.2233 -0.2208 -0.1248
   65MOL   C13220740   3.862   0.756   0.659  1.1087  0.0887  0.0743
   65MOL   C13320741   3.967   0.814   0.738 -0.5720  0.4668  0.8323
   65MOL  Cl13420742   3.994   0.762   0.899  0.0343 -0.1996  0.5416
   65MOL   C13520743   4.067   0.890   0.669  0.6484  0.0825  0.2721
   65MOL   C13620744   4.063   0.910   0.533 -0.2063  0.1283  0.6329
   65MOL   C13720745   3.943   0.865   0.465 -0.0132  0.4640  0.2729
   65MOL   C13820746   3.704   0.581   0.461  0.2731  0.1960 -0.1623
   65MOL   H13920747   3.753   0.738   0.335  0.8120 -2.1651 -0.9469
   65MOL   H14020748   3.783   0.699   0.705 -0.1622 -0.3611 -2.5899
   65MOL   H14120749   4.154   0.925   0.724  1.8235 -1.4799 -0.5613
   65MOL   H14220750   4.148   0.952   0.482  0.8000 -2.2379  0.2817
   65MOL   H14320751   3.943   0.876   0.357  1.5237  2.0697  0.4177
   65MOL   H14420752   3.657   0.579   0.559  1.6878 -0.9978  0.5166
   65MOL   H14520753   3.635   0.530   0.394  2.1068 -1.3048 -0.9610
   65MOL   C14620754   3.828   0.485   0.445  0.7562 -0.2685 -0.1759
   65MOL   C14720755   3.800   0.348   0.511 -0.2677 -0.4189  0.7569
   65MOL   C14820756   3.756   0.229   0.440 -0.2584 -0.8076 -0.8770
   65MOL   C14920757   3.707   0.119   0.515 -0.0707 -0.0502 -0.0274
   65MOL  Cl15020758   3.630   8.431   0.423 -0.2759 -0.1609 -0.0347
   65MOL   C15120759   3.736   0.112   0.653  0.1415 -0.7061 -0.5138
   65MOL   C15220760   3.785   0.222   0.725 -0.1343 -0.1753 -0.3343
   65MOL   C15320761   3.816   0.339   0.651  0.2141  0.6885  0.1755
   65MOL   C15420762   3.867   0.473   0.292  0.3301 -0.1478 -0.3579
   65MOL   H15520763   3.908   0.538   0.495  0.3042 -0.7042  1.0340
   65MOL   H15620764   3.745   0.229   0.332  0.7942  2.6390 -1.0676
   65MOL   H15720765   3.704   0.026   0.710 -0.3703 -1.0409 -1.2887
   65MOL   H15820766   3.805   0.233   0.831  2.4670 -0.0922 -0.8044
   65MOL   H15920767   3.855   0.427   0.699  1.5478 -0.7142  1.7506
   65MOL   H16020768   3.787   0.411   0.251 -1.0645 -0.7195  3.0914
   65MOL   H16120769   3.857   0.568   0.240 -2.7041  0.5643  1.3866
   65MOL   C16220770   4.010   0.409   0.261  0.0043  0.1984  0.2866
   65MOL   C16320771   4.005   0.343   0.124 -0.1194 -0.8407  0.3137
   65MOL   C16420772   3.966   0.418   0.013  0.3983  1.0973  0.3434
   65MOL   C16520773   3.946   0.356   8.322 -0.3220  0.1690 -0.9797
   65MOL  Cl16620774   3.871   0.447   8.187 -0.1426 -0.2189  0.1175
   65MOL   C16720775   3.967   0.216   8.308 -0.1978  0.1682 -0.1172
   65MOL   C16820776   3.996   0.143   8.422  0.4518 -0.6462  0.1631
   65MOL   C16920777   4.023   0.205   0.108 -0.4978  0.2625 -0.3558
   65MOL   C17020778   4.140   0.502   0.271  0.2501 -0.3262 -0.1311
   65MOL   H17120779   4.007   0.328   0.334  2.2435 -0.4905 -0.3236
   65MOL   H17220780   3.944   0.524   0.015 -0.1295  0.9742  1.1613
   65MOL   H17320781   3.953   0.159   8.217 -2.0677 -1.4604  1.1547
   65MOL   H17420782   3.999   0.036   8.405  0.0388 -0.3610 -1.7731
   65MOL   H17520783   4.060   0.138   0.183 -1.7598  1.3440  1.2712
   65MOL   H17620784   4.219   0.438   0.232  0.8751 -0.9981  2.1397
   65MOL   H17720785   4.116   0.572   0.191 -0.1680 -0.7917 -0.4067
   65MOL   C17820786   4.180   0.562   0.402  0.4573  0.9037  0.2261
   65MOL   C17920787   4.206   0.464   0.518  0.2013  0.2247 -0.1802
   65MOL   C18020788   4.169   0.493   0.650 -0.3581 -0.2673 -0.7590
   65MOL   C18120789   4.202   0.397   0.757 -0.0307 -0.4060  0.2280
   65MOL  Cl18220790   4.149   0.427   0.916  0.1388  0.2415 -0.3143
   65MOL   C18320791   4.270   0.283   0.728  0.3681  0.4147  0.3155
   65MOL   C18420792   4.318   0.259   0.597 -0.7776  0.0684  1.3366
   65MOL   C18520793   4.284   0.344   0.498  0.0090 -0.2126  0.1845
   65MOL   C18620794   4.295   0.666   0.393 -0.5187 -0.2662  0.9334
   65MOL   H18720795   4.088   0.606   0.438  0.4235  0.6404  0.4646
   65MOL   H18820796   4.115   0.586   0.656  1.4216  0.7444 -0.0403
   65MOL   H18920797   4.280   0.211   0.808 -0.1877 -0.3567 -0.3082
   65MOL   H19020798   4.385   0.176   0.577 -0.0205  0.7356  1.0713
   65MOL   H19120799   4.316   0.324   0.397  0.0066 -0.8981  0.3167
   65MOL   H19220800   4.276   0.746   0.321 -0.9721 -0.7759  0.4762
   65MOL   H19320801   4.299   0.720   0.487 -0.9634  2.7086 -0.6793
   65MOL   C19420802   4.439   0.607   0.369  0.0464 -0.0010 -0.0548
   65MOL   C19520803   4.461   0.565   0.222  0.0674 -0.0800  0.1073
   65MOL   C19620804   4.470   0.429   0.192 -0.6176 -0.1501  0.2353
   65MOL   C19720805   4.493   0.389   0.063  0.4173 -0.5548 -0.2611
   65MOL  Cl19820806   4.498   0.227   0.027 -0.3242 -0.0607 -0.0864
   65MOL   C19920807   4.516   0.484   8.396  0.4051  0.4389  0.0687
   65MOL   C20020808   4.495   0.622   8.424  0.3620 -0.2336 -0.3359
   65MOL   C20120809   4.474   0.666   0.116  0.0311  0.0170  0.6303
   65MOL   C20220810   4.557   0.700   0.425  0.7762  0.5452  0.0419
   65MOL   H20320811   4.442   0.511   0.421 -1.3371  0.0791  0.1821
   65MOL   H20420812   4.479   0.349   0.264  0.0043  1.2481  1.7515
   65MOL   H20520813   4.540   0.443   8.299  0.4722 -1.7502  0.9872
   65MOL   H20620814   4.502   0.698   8.347 -0.8587  0.7406  0.4914
   65MOL   H20720815   4.452   0.770   0.138  0.4122  0.1412  0.4283
   65MOL   H20820816   4.653   0.693   0.373  0.3476  0.6764 -0.7721
   65MOL   H20920817   4.525   0.803   0.408 -1.9291 -0.3989 -0.7032
   65MOL   C21020818   4.581   0.679   0.568  0.1053  0.0848  0.5227
   65MOL   C21120819   4.633   0.542   0.607 -0.3326 -0.3312 -0.4674
   65MOL   C21220820   4.718   0.466   0.523  0.1645  0.2125  0.8406
   65MOL   C21320821   4.755   0.339   0.563  0.1449  0.4790 -0.0660
   65MOL  Cl21420822   4.853   0.234   0.472  0.2116  0.2483  0.0375
   65MOL   C21520823   4.698   0.283   0.674  0.7290  0.1304 -0.0704
   65MOL   C21620824   4.616   0.358   0.761 -0.3819  0.1930 -0.3452
   65MOL   C21720825   4.599   0.491   0.733 -0.4849  0.6033  0.2823
   65MOL   C21820826   4.689   0.776   0.623 -0.1829 -0.1446 -0.3186
   65MOL   H21920827   4.488   0.673   0.624  0.0357  3.0730  0.7992
   65MOL   H22020828   4.748   0.509   0.429  0.3320  0.8317  1.1731
   65MOL   H22120829   4.724   0.181   0.699  1.8761  0.1554 -1.1003
   65MOL   H22220830   4.571   0.318   0.851  1.2035 -0.5591  0.1229
   65MOL   H22320831   4.539   0.552   0.800 -0.7089 -0.1314  0.7561
   65MOL   H22420832   4.726   0.745   0.721  0.6844 -0.8757 -0.8630
   65MOL   H22520833   4.777   0.753   0.562  0.1864  1.6225 -0.4872
   65MOL   C22620834   4.663   0.926   0.632  0.2934 -0.5222  0.3402
   65MOL   C22720835   4.542   0.955   0.719 -0.1687  0.6824  0.8527
   65MOL   C22820836   4.454   1.070   0.694 -0.4037 -0.4555 -0.3530
   65MOL   C22920837   4.355   1.107   0.787 -0.1539 -0.5670  0.4380
   65MOL  Cl23020838   4.245   1.240   0.745 -0.0233  0.2563 -0.3793
   65MOL   C23120839   4.333   1.032   0.904 -0.9210  0.4084  0.3307
   65MOL   C23220840   4.416   0.923   0.929 -0.1952  0.6871  0.2999
   65MOL   C23320841   4.520   0.886   0.837  0.0884  0.3622 -0.3736
   65MOL   C23420842   4.781   1.007   0.692  0.1096  0.0773  0.6368
   65MOL   H23520843   4.647   0.960   0.530 -1.6435  0.9289  1.1054
   65MOL   H23620844   4.471   1.132   0.607 -5.4929  0.0513 -1.1901
   65MOL   H23720845   4.250   1.043   0.974 -1.6940 -2.9476  0.0064
   65MOL   H23820846   4.414   0.869   1.022 -0.3693  1.8911  1.0033
   65MOL   H23920847   4.572   0.794   0.859  1.8080  1.4716  0.3310
   65MOL   H24020848   4.753   1.110   0.710  1.5425  0.1840  2.3826
   65MOL   H24120849   4.792   0.972   0.795 -0.5027  0.2165  0.7547
   65MOL   C24220850   4.908   0.999   0.606  0.6502 -0.0981 -0.0727
   65MOL   C24320851   4.899   1.064   0.472 -0.3261 -0.6401 -0.7951
   65MOL   C24420852   4.904   0.998   0.348 -0.0702  0.0201 -0.1994
   65MOL   C24520853   4.877   1.076   0.233 -0.4463  0.2218  0.5619
   65MOL  Cl24620854   4.895   0.992   0.083  0.3266  0.0074  0.3406
   65MOL   C24720855   4.852   1.215   0.235  0.0355  0.5024 -0.2219
   65MOL   C24820856   4.861   1.280   0.354  0.5155  0.2837  0.3391
   65MOL   C24920857   4.884   1.207   0.472  0.0660  0.0718 -0.2323
   65MOL   C25020858   5.043   1.015   0.674 -0.0648  0.0176 -0.8187
   65MOL   H25120859   4.918   0.892   0.591 -0.5176 -0.6165  2.5250
   65MOL   H25220860   4.912   0.892   0.328  1.9615 -0.4242  2.6621
   65MOL   H25320861   4.845   1.283   0.152  0.6978  1.1164  0.2208
   65MOL   H25420862   4.870   1.387   0.355 -0.4136  0.3644  0.5358
   65MOL   H25520863   4.898   1.258   0.567 -0.7618 -1.2261  0.6083
   65MOL   H25620864   5.117   1.022   0.594 -1.0768  0.7692 -1.6945
   65MOL   H25720865   5.062   1.117   0.708  0.5785 -0.8944  1.6784
   65MOL   C25820866   5.111   0.913   0.779 -0.3965  0.2523 -0.1280
   65MOL   C25920867   5.027   0.794   0.813  0.2283 -0.2953 -0.3612
   65MOL   C26020868   4.941   0.793   0.925  0.2526 -0.9329  0.3978
   65MOL   C26120869   4.871   0.676   0.960  0.3179 -0.2090  0.3586
   65MOL  Cl26220870   4.775   0.671   1.102  0.2902 -0.0004  0.0794
   65MOL   C26320871   4.876   0.559   0.876  0.4661  0.4477 -0.3080
   65MOL   C26420872   4.948   0.567   0.757  0.0476  0.3636  0.1772
   65MOL   C26520873   5.030   0.679   0.728 -0.4404 -0.2424 -0.5552
   65MOL   C26620874   5.254   0.880   0.742 -0.4530  0.6233  0.2974
   65MOL   H26720875   5.110   0.966   0.875  0.2327 -2.1365  1.2243
   65MOL   H26820876   4.924   0.880   0.986 -1.0988 -1.1600  0.3736
   65MOL   H26920877   4.805   0.483   0.902  0.9930  0.8584  2.5059
   65MOL   H27020878   4.959   0.482   0.690  1.8278  0.2977  0.5117
   65MOL   H27120879   5.094   0.686   0.641 -0.0627  1.3805 -0.1570
   65MOL   H27220880   5.291   0.790   0.792  1.0994 -0.0941 -2.0626
   65MOL   H27320881   5.251   0.850   0.638  1.9049  0.5119  0.2234
   65MOL   C27420882   5.354   1.006   0.766 -0.7062  0.4306 -0.2960
   65MOL   C27520883   5.367   1.042   0.916  0.4095  0.0197  0.6128
   65MOL   C27620884   5.392   0.937   1.008  0.4254 -0.7546  0.4065
   65MOL   C27720885   5.393   0.958   1.149 -0.0923 -0.2637  1.0060
   65MOL  Cl27820886   5.413   0.833   1.259 -0.5510  0.0515  0.0817
   65MOL   C27920887   5.374   1.089   1.192  0.0492 -0.1808 -0.9840
   65MOL   C28020888   5.348   1.196   1.105 -0.4007  0.1032 -0.0713
   65MOL   C28120889   5.338   1.168   0.971 -0.0442 -0.1699  0.0225
   65MOL   C28220890   5.496   0.989   0.706  0.8026 -0.1358  0.1111
   65MOL   H28320891   5.306   1.092   0.719  0.8439  2.2766  1.3631
   65MOL   H28420892   5.412   0.837   0.973 -0.1087 -0.1716 -1.6121
   65MOL   H28520893   5.379   1.098   1.299 -1.3370  1.4196 -1.0335
   65MOL   H28620894   5.318   1.292   1.146 -1.2287  0.0273 -0.4962
   65MOL   H28720895   5.317   1.244   0.897  0.1400 -0.5096 -0.3780
   65MOL   H28820896   5.544   1.087   0.710  1.9210 -0.4957 -3.0133
   65MOL   H28920897   5.556   0.925   0.770  1.8164 -0.8269 -1.4991
   65MOL   C29020898   5.500   0.938   0.560 -0.5021 -0.1960 -0.1490
   65MOL   C29120899   5.411   1.024   0.469 -0.0624 -0.4227  0.1573
   65MOL   C29220900   5.430   1.167   0.446  0.5446  1.2761 -0.4326
   65MOL   C29320901   5.345   1.226   0.356  0.6578 -0.0138  0.3386
   65MOL  Cl29420902   5.364   1.394   0.341 -0.0443 -0.2248 -0.0433
   65MOL   C29520903   5.242   1.156   0.284 -0.5183  0.0825  0.0779
   65MOL   C29620904   5.227   1.019   0.304  0.1612  0.7513  0.1759
   65MOL   C29720905   5.318   0.954   0.394 -0.1307 -0.5928  0.3243
   65MOL   C29820906   5.645   0.929   0.510  0.0942  0.4708 -0.4626
   65MOL   H29920907   5.479   0.832   0.560 -0.2312 -0.2518 -0.3073
   65MOL   H30020908   5.495   1.222   0.513  0.8711  0.7792 -0.3457
   65MOL   H30120909   5.173   1.204   0.215 -0.2339  0.9726  0.4003
   65MOL   H30220910   5.155   0.958   0.251  2.6315 -1.7729 -0.4050
   65MOL   H30320911   5.320   0.847   0.411 -2.0854 -0.3710  2.1268
   65MOL   H30420912   5.695   1.022   0.539 -1.7176  0.5389  2.6923
   65MOL   H30520913   5.701   0.841   0.544 -0.1644  0.5906  0.2797
   65MOL   C30620914   5.667   0.894   0.358 -0.0721  0.0512 -0.1610
   65MOL   C30720915   5.810   0.913   0.316 -0.4868 -0.2054 -0.9793
   65MOL   C30820916   5.859   1.044   0.315 -0.8033 -0.2083  0.1525
   65MOL   C30920917   5.998   1.068   0.298 -0.0005 -0.0216  0.0374
   65MOL  Cl31020918   6.065   1.228   0.298 -0.1539  0.3538 -0.2568
   65MOL   C31120919   6.083   0.957   0.281  0.3464  0.2174 -0.1454
   65MOL   C31220920   6.031   0.824   0.271  0.2147  0.0709  0.4358
   65MOL   C31320921   5.896   0.802   0.287 -0.7439  0.7949  0.7823
   65MOL   C31420922   5.611   0.749   0.337 -0.4869  0.2308  0.1235
   65MOL   H31520923   5.608   0.965   0.301  2.1180  1.0079 -1.2703
   65MOL   H31620924   5.793   1.125   0.344 -2.1633  0.3477 -4.1469
   65MOL   H31720925   6.188   0.980   0.290  0.3356  0.9676 -1.9189
   65MOL   H31820926   6.100   0.745   0.250  0.6503 -0.0091  2.1010
   65MOL   H31920927   5.862   0.700   0.285  0.4835  0.3678  1.1887
   65MOL   H32020928   5.627   0.715   0.235 -0.7524  0.3910  0.0286
   65MOL   H32120929   5.665   0.672   0.394 -0.0673  2.1243  2.3615
   65MOL   H32220930   5.503   0.736   0.344 -0.5585 -0.0516 -1.3886
   66MOL     C120931   5.976   8.295   6.547 -0.7992 -0.0144  0.7890
   66MOL     C220932   6.028   8.183   6.631 -0.7796  0.0471  0.5081
   66MOL     C320933   5.966   8.157   6.758  0.3624 -0.2488  0.1220
   66MOL     C420934   6.014   8.057   6.846 -0.5575  0.4496 -0.4981
   66MOL    Cl520935   5.942   8.039   7.002 -0.6346  0.6626 -0.5099
   66MOL     C620936   6.133   7.983   6.809  0.0474 -0.3228 -0.8668
   66MOL     C720937   6.195   8.010   6.686  0.0679  0.4317 -0.5294
   66MOL     C820938   6.138   8.102   6.592 -0.2766 -0.1365 -0.6480
   66MOL     C920939   6.018   8.434   6.590 -0.5455 -0.2072 -0.6687
   66MOL    H1020940   5.867   8.287   6.544 -0.7787  0.1918 -1.0563
   66MOL    H1120941   5.881   8.213   6.793 -0.3114 -1.5642  0.6475
   66MOL    H1220942   6.175   7.904   6.868 -0.5481 -1.1134 -1.4823
   66MOL    H1320943   6.279   7.953   6.649  1.9104  4.2521 -2.5620
   66MOL    H1420944   6.192   8.115   6.499 -1.1519 -0.6507 -1.2418
   66MOL    H1520945   5.993   0.005   6.696 -1.0399 -0.4688 -0.7742
   66MOL    H1620946   6.127   8.433   6.599 -0.5717 -0.1118 -0.3141
   66MOL    H1720947   6.011   8.283   6.444  1.5657  1.0247  1.4467
   66MOL    C1820948   5.953   0.111   6.501 -1.1104 -0.1854  0.3149
   66MOL    C1920949   6.010   0.125   6.363  0.1113  0.1131 -1.4509
   66MOL    C2020950   6.082   0.242   6.330  0.2055 -1.0961 -0.2922
   66MOL    C2120951   6.132   0.263   6.200 -0.0083 -0.2630 -0.3833
   66MOL   Cl2220952   6.204   0.414   6.161  0.1252  0.1849  0.0333
   66MOL    C2320953   6.114   0.161   6.103  0.4416 -0.2026  0.1509
   66MOL    C2420954   6.039   0.047   6.132  0.0259  0.1379  0.1386
   66MOL    C2520955   5.985   0.028   6.262 -0.0945 -0.0318  0.0365
   66MOL    C2620956   5.795   0.114   6.510 -0.1829 -0.2062  0.2474
   66MOL    H2720957   5.988   0.203   6.548 -0.4267 -0.0151 -0.5228
   66MOL    H2820958   6.099   0.310   6.412  0.8118 -2.6114  0.8441
   66MOL    H2920959   6.150   0.193   6.006  2.0024  1.0346  1.1126
   66MOL    H3020960   6.019   8.415   6.049 -1.2095 -0.6103  1.0138
   66MOL    H3120961   5.931   8.370   6.272  2.0332 -1.2726  0.5011
   66MOL    H3220962   5.746   0.181   6.440  1.0819 -0.1247 -0.5821
   66MOL    H3320963   5.765   0.013   6.483 -3.4948  0.8849 -0.3340
   66MOL    C3420964   5.734   0.137   6.651  0.6775  0.2263  0.4916
   66MOL    C3520965   5.810   0.246   6.722 -0.0715  0.1541 -0.1445
   66MOL    C3620966   5.837   0.371   6.660  0.2241 -0.2956 -0.0810
   66MOL    C3720967   5.930   0.467   6.712 -0.0693  0.6703 -0.3325
   66MOL   Cl3820968   5.982   0.601   6.620  0.4177  0.0403  0.0403
   66MOL    C3920969   5.995   0.426   6.836  0.2935  0.0604 -0.2776
   66MOL    C4020970   5.964   0.306   6.899 -1.1852  0.3002  0.0492
   66MOL    C4120971   5.866   0.221   6.845  0.5385 -0.4227 -0.3663
   66MOL    C4220972   5.581   0.186   6.643 -0.2051 -0.2822  0.1339
   66MOL    H4320973   5.729   0.048   6.714  0.8826  0.2943  0.6020
   66MOL    H4420974   5.790   0.390   6.564 -0.4119  1.9927  0.6707
   66MOL    H4520975   6.071   0.487   6.882  1.1409  0.2272 -1.8576
   66MOL    H4620976   6.000   0.276   6.997  2.6744  0.7538 -1.1545
   66MOL    H4720977   5.828   0.134   6.897 -3.4783  0.8908 -0.9260
   66MOL    H4820978   5.555   0.206   6.747  3.0093  0.9248  0.7557
   66MOL    H4920979   5.579   0.280   6.587 -0.7320  0.7869  1.9070
   66MOL    C5020980   5.489   0.080   6.585 -0.4756  0.2281  0.4917
   66MOL    C5120981   5.490   8.385   6.669 -0.1798  0.3006 -0.1954
   66MOL    C5220982   5.428   8.378   6.797 -0.4027 -0.5363 -0.0063
   66MOL    C5320983   5.423   8.254   6.867 -0.2011  0.4636  0.8302
   66MOL   Cl5420984   5.345   8.243   7.020 -0.2361  0.4058  0.0391
   66MOL    C5520985   5.481   8.137   6.814  0.8662 -0.2685  0.0365
   66MOL    C5620986   5.546   8.144   6.690  0.5934 -0.1362 -1.1938
   66MOL    C5720987   5.550   8.266   6.619  0.1010 -0.0844 -0.2299
   66MOL    C5820988   5.348   0.141   6.566 -0.3184 -0.1887 -0.4374
   66MOL    H5920989   5.518   0.051   6.483 -2.2642  1.9554 -0.5434
   66MOL    H6020990   5.373   0.022   6.846 -0.1079 -1.6274  2.1738
   66MOL    H6120991   5.469   8.048   6.874  0.9936 -0.3160 -0.0091
   66MOL    H6220992   5.602   8.062   6.646  0.6639 -0.5640 -0.3242
   66MOL    H6320993   5.600   8.272   6.523  1.1317 -0.2845  0.2872
   66MOL    H6420994   5.327   0.169   6.669  0.4208 -2.7986  0.4842
   66MOL    H6520995   5.361   0.227   6.501 -2.0661  0.4204 -0.0112
   66MOL    C6620996   5.234   0.046   6.504  0.8039  0.2960  0.5415
   66MOL    C6720997   5.107   0.061   6.595 -0.3055  0.2024  0.7436
   66MOL    C6820998   5.042   8.386   6.653 -0.2146  0.6159 -1.2401
   66MOL    C6920999   4.940   8.398   6.746 -0.3431 -0.7142  0.1867
   66MOL   Cl7021000   4.887   8.253   6.825  0.0460  0.3595  0.2193
   66MOL    C7121001   4.881   0.093   6.766 -0.3724  0.2486  0.1415
   66MOL    C7221002   4.933   0.197   6.697 -0.5054  0.2895  0.1862
   66MOL    C7321003   5.043   0.186   6.613  0.5586  0.0724 -0.0910
   66MOL    C7421004   5.189   0.080   6.357 -0.4296  0.1685 -0.2675
   66MOL    H7521005   5.268   8.378   6.508 -1.4376 -0.4709  0.4999
   66MOL    H7621006   5.080   8.285   6.646 -1.4035  0.1665 -1.2671
   66MOL    H7721007   4.798   0.093   6.835  2.0052 -0.4057  3.1287
   66MOL    H7821008   4.877   0.290   6.701 -0.8219  0.0489  2.0834
   66MOL    H7921009   5.073   0.275   6.561 -0.4479 -0.6804 -2.0035
   66MOL    H8021010   5.085   0.048   6.348 -0.3297 -0.1662 -0.2219
   66MOL    H8121011   5.176   0.188   6.347 -0.7515  0.2981  1.5405
   66MOL    C8221012   5.286   0.019   6.253 -0.3196  0.0133 -0.3208
   66MOL    C8321013   5.276   8.302   6.251  0.8064  0.1901  0.2530
   66MOL    C8421014   5.393   8.225   6.268 -0.5499 -0.2044  0.5699
   66MOL    C8521015   5.389   8.086   6.264  0.7618 -0.5580 -0.1175
   66MOL   Cl8621016   5.535   7.990   6.271  0.1937 -0.1333 -0.0010
   66MOL    C8721017   5.262   8.020   6.248  0.5494 -0.3054  0.6541
   66MOL    C8821018   5.144   8.094   6.221  0.2122 -0.3700  0.0858
   66MOL    C8921019   5.155   8.230   6.223 -0.2941 -0.1009  0.1085
   66MOL    C9021020   5.256   0.077   6.109 -0.3218 -0.1876 -0.2453
   66MOL    H9121021   5.385   0.042   6.292 -0.7075 -0.2970  0.8866
   66MOL    H9221022   5.485   8.281   6.266  0.1715 -1.2699  2.5829
   66MOL    H9321023   5.250   7.913   6.248 -2.0389 -0.0518  0.2177
   66MOL    H9421024   5.052   8.037   6.209 -0.3425  0.9084 -1.9270
   66MOL    H9521025   5.066   8.290   6.208 -0.3801 -0.3173 -0.2418
   66MOL    H9621026   5.309   0.009   6.042  0.5459 -0.7203  0.9714
   66MOL    H9721027   5.152   0.079   6.078  0.4562 -0.1614 -3.0347
   66MOL    C9821028   5.313   0.216   6.088 -0.3067 -0.7116  0.2380
   66MOL    C9921029   5.464   0.211   6.084 -0.0943 -0.0076 -0.1808
   66MOL   C10021030   5.533   0.286   6.178 -0.6508 -0.7252 -0.2167
   66MOL   C10121031   5.675   0.291   6.171  0.1799  0.8500 -0.1617
   66MOL  Cl10221032   5.760   0.384   6.289  0.2638 -0.1213  0.0489
   66MOL   C10321033   5.745   0.225   6.071 -0.5853 -0.3678  0.1922
   66MOL   C10421034   5.673   0.150   5.976  0.2181  0.9102 -0.1998
   66MOL   C10521035   5.535   0.147   5.978  0.3312 -0.8458  0.6429
   66MOL   C10621036   5.258   0.269   5.950  0.0107  0.2089 -0.8340
   66MOL   H10721037   5.285   0.279   6.173 -2.1142  0.9209 -1.5120
   66MOL   H10821038   5.488   0.349   6.253  0.7478  0.0778 -0.0336
   66MOL   H10921039   5.850   0.236   6.051 -0.9281  1.0906 -0.9231
   66MOL   H11021040   5.729   0.090   5.906 -0.7140 -0.0829 -0.0978
   66MOL   H11121041   5.486   0.082   5.908 -0.2655  0.1941  0.0901
   66MOL   H11221042   5.285   0.199   5.870 -1.5275 -0.0470 -1.1404
   66MOL   H11321043   5.151   0.288   5.957  0.0969  0.4338 -0.1084
   66MOL   C11421044   5.323   0.400   5.896  0.2907  0.0442 -0.1826
   66MOL   C11521045   5.289   0.440   5.751 -0.2182 -0.3495  0.4505
   66MOL   C11621046   5.192   0.537   5.720 -0.2557 -0.3961 -0.1954
   66MOL   C11721047   5.148   0.558   5.586 -0.9119 -0.3533  0.4237
   66MOL  Cl11821048   5.023   0.665   5.549 -0.1016  0.5360 -0.3211
   66MOL   C11921049   5.211   0.486   5.483 -0.3128 -0.5254 -0.0422
   66MOL   C12021050   5.309   0.388   5.507 -1.0408 -0.8870 -0.0818
   66MOL   C12121051   5.345   0.362   5.644  0.3836 -0.7127 -0.9659
   66MOL   C12221052   5.310   0.513   6.001  0.4674  0.0031 -0.3500
   66MOL   H12321053   5.430   0.384   5.888 -0.0633 -2.6616  0.0738
   66MOL   H12421054   5.144   0.599   5.794 -1.3644 -1.4640 -0.0065
   66MOL   H12521055   5.193   0.506   5.379  0.3088 -1.0184 -0.2457
   66MOL   H12621056   5.362   0.335   5.429  0.6476  2.6584 -1.5068
   66MOL   H12721057   5.399   0.270   5.661 -1.7273 -1.3340  2.8574
   66MOL   H12821058   5.208   0.549   5.990  0.0137 -1.6348 -1.6419
   66MOL   H12921059   5.319   0.480   6.105 -1.7710  0.4957  0.0193
   66MOL   C13021060   5.398   0.642   5.984 -1.0282 -0.6860 -0.4667
   66MOL   C13121061   5.344   0.752   6.069  0.8164 -0.4622 -0.0959
   66MOL   C13221062   5.296   0.870   6.006 -0.2569 -0.2120  0.5483
   66MOL   C13321063   5.261   0.980   6.087  0.0311 -0.1252  0.1968
   66MOL  Cl13421064   5.215   1.127   6.017 -0.2948 -0.3690  0.1044
   66MOL   C13521065   5.271   0.976   6.228  0.6378 -0.2574 -0.3385
   66MOL   C13621066   5.311   0.854   6.291 -0.8441  0.2810 -0.2883
   66MOL   C13721067   5.350   0.743   6.209 -0.5070 -0.4990 -0.1529
   66MOL   C13821068   5.548   0.621   5.992  0.0349  0.0764 -0.8849
   66MOL   H13921069   5.392   0.677   5.881  0.1929  0.3366 -0.2013
   66MOL   H14021070   5.297   0.877   5.898 -0.3246 -1.6397  0.4541
   66MOL   H14121071   5.244   1.063   6.285  0.2775  0.3001 -1.3448
   66MOL   H14221072   5.311   0.839   6.398  1.8614 -1.0764 -0.4315
   66MOL   H14321073   5.392   0.652   6.250  1.8193 -0.4272 -2.2000
   66MOL   H14421074   5.576   0.591   6.093 -2.7241 -0.2203 -0.1746
   66MOL   H14521075   5.582   0.535   5.935  1.6941 -0.7987  1.3496
   66MOL   C14621076   5.638   0.744   5.946 -0.0639  0.2078 -0.3502
   66MOL   C14721077   5.781   0.733   6.004  0.1691 -0.4426  0.3628
   66MOL   C14821078   5.890   0.670   5.936  0.3111 -0.0029  0.3962
   66MOL   C14921079   6.018   0.680   5.996  0.0616  0.9619 -0.3559
   66MOL  Cl15021080   6.150   0.605   5.914 -0.0991 -0.1752 -0.3584
   66MOL   C15121081   6.038   0.735   6.121  0.4399  0.2186 -0.3935
   66MOL   C15221082   5.926   0.787   6.190  0.4218  0.1813  0.2014
   66MOL   C15321083   5.800   0.784   6.133 -0.2179 -0.2560 -0.5825
   66MOL   C15421084   5.639   0.763   5.794  0.1484  1.0013 -0.0340
   66MOL   H15521085   5.591   0.831   5.993 -1.3880 -0.5410 -0.2590
   66MOL   H15621086   5.889   0.623   5.839  1.9577  0.8577 -0.0634
   66MOL   H15721087   6.137   0.732   6.165 -0.0597  2.4634  0.9813
   66MOL   H15821088   5.937   0.821   6.292  0.7470 -0.9689  0.5515
   66MOL   H15921089   5.720   0.825   6.192  1.2458 -0.1632  1.3814
   66MOL   H16021090   5.706   0.704   5.732  2.2719  2.9635  0.3410
   66MOL   H16121091   5.540   0.735   5.757  0.6485 -0.3014 -0.4221
   66MOL   C16221092   5.639   0.918   5.751  0.0986 -0.0097  0.4108
   66MOL   C16321093   5.779   0.973   5.770  0.1989  0.7112  0.1087
   66MOL   C16421094   5.892   0.899   5.726  0.6194 -0.1909  0.1804
   66MOL   C16521095   6.017   0.953   5.759  0.2808 -1.0635 -0.4389
   66MOL  Cl16621096   6.161   0.870   5.707  0.5542  0.0528  0.1186
   66MOL   C16721097   6.033   1.070   5.833  0.4012 -0.3985  0.1359
   66MOL   C16821098   5.918   1.148   5.860  0.3671  0.1599  0.1203
   66MOL   C16921099   5.793   1.096   5.835  0.4584 -0.2511 -0.1036
   66MOL   C17021100   5.594   0.948   5.608  0.0488  0.4092 -0.4422
   66MOL   H17121101   5.570   0.966   5.821  0.6270  1.2332  0.0902
   66MOL   H17221102   5.890   0.803   5.676  3.1444 -0.2415  0.0659
   66MOL   H17321103   6.134   1.105   5.849 -0.5244  2.3604  0.2062
   66MOL   H17421104   5.924   1.246   5.903  0.6498  0.8673 -1.4828
   66MOL   H17521105   5.710   1.157   5.867  0.4307 -0.4778  0.2575
   66MOL   H17621106   5.676   0.993   5.551 -1.1820  2.6921 -0.4813
   66MOL   H17721107   5.582   0.854   5.555  1.0724  0.7999 -1.3794
   66MOL   C17821108   5.467   1.046   5.597 -0.2230  0.2672  0.4875
   66MOL   C17921109   5.506   1.183   5.636 -0.6591  0.4618 -0.5283
   66MOL   C18021110   5.582   1.264   5.547 -0.7050 -0.1257 -0.4247
   66MOL   C18121111   5.638   1.387   5.597 -1.2222  0.4691  0.2697
   66MOL  Cl18221112   5.741   1.482   5.498  0.0153  0.3539 -0.1343
   66MOL   C18321113   5.600   1.436   5.727 -1.0239  0.4356 -0.2025
   66MOL   C18421114   5.523   1.356   5.808  0.4367 -0.4155 -0.0829
   66MOL   C18521115   5.473   1.233   5.767  0.0665 -0.0523  0.1318
   66MOL   C18621116   5.390   1.047   5.465 -0.0397 -0.0718 -0.4670
   66MOL   H18721117   5.408   0.993   5.673  2.1528 -0.5250  1.8323
   66MOL   H18821118   5.601   1.228   5.447 -1.2440 -1.9377  0.1070
   66MOL   H18921119   5.626   1.534   5.766  0.8218 -1.0775  2.5407
   66MOL   H19021120   5.495   1.402   5.902 -2.2060  1.7407 -1.8355
   66MOL   H19121121   5.406   1.177   5.831 -0.5648  2.4172  1.7116
   66MOL   H19221122   5.437   1.104   5.385  1.6396 -1.1937 -0.3151
   66MOL   H19321123   5.404   0.948   5.421 -2.1373  0.3126 -2.0408
   66MOL   C19421124   5.234   1.064   5.476  0.1202 -0.0068 -0.3612
   66MOL   C19521125   5.204   1.206   5.531  0.2594 -0.1277 -0.4253
   66MOL   C19621126   5.138   1.224   5.652 -0.9174  0.1242 -0.4712
   66MOL   C19721127   5.120   1.350   5.708 -0.3924 -0.2261 -0.1504
   66MOL  Cl19821128   5.040   1.381   5.861  0.2910 -0.2521  0.0406
   66MOL   C19921129   5.160   1.464   5.635  0.0772  0.2288  0.4998
   66MOL   C20021130   5.226   1.446   5.515 -0.2624 -0.4103 -0.0557
   66MOL   C20121131   5.247   1.317   5.461  0.3117 -0.1910 -0.7730
   66MOL   C20221132   5.175   1.040   5.336  0.0073 -0.4688 -0.4762
   66MOL   H20321133   5.188   0.991   5.542  1.3616 -1.8424 -1.5035
   66MOL   H20421134   5.108   1.133   5.703 -0.1525  0.2570  0.2280
   66MOL   H20521135   5.140   1.564   5.673 -1.0307 -0.2147  1.1090
   66MOL   H20621136   5.249   1.529   5.450  1.0604  1.0320  2.1769
   66MOL   H20721137   5.294   1.318   5.364  0.5471 -0.4217 -0.6596
   66MOL   H20821138   5.219   1.115   5.271 -1.9017  1.3854  0.3419
   66MOL   H20921139   5.210   0.945   5.295  0.1244 -1.3255  1.5281
   66MOL   C21021140   5.022   1.058   5.314  0.2289  0.6080 -0.6250
   66MOL   C21121141   5.007   1.104   5.164 -0.0049 -0.7298 -0.7047
   66MOL   C21221142   4.988   1.011   5.059 -0.6246  0.4597  0.7382
   66MOL   C21321143   4.974   1.055   4.927 -0.0477  0.0456  0.0099
   66MOL  Cl21421144   4.969   0.937   4.802  0.0003  0.5338  0.0498
   66MOL   C21521145   4.978   1.189   4.905 -0.4816 -0.5201  0.6777
   66MOL   C21621146   5.002   1.286   5.005 -0.8341 -0.2513  0.3278
   66MOL   C21721147   5.021   1.243   5.140  0.6009 -0.1073  0.0536
   66MOL   C21821148   4.944   0.938   5.362 -0.2698 -0.6635  0.4661
   66MOL   H21921149   4.991   1.149   5.366 -1.0474  1.1197 -2.2238
   66MOL   H22021150   4.983   0.904   5.063 -0.9989  0.4769  0.7642
   66MOL   H22121151   4.975   1.215   4.801 -0.2315  2.5603  1.3817
   66MOL   H22221152   5.015   1.391   4.980 -0.7353 -0.3105  0.1360
   66MOL   H22321153   5.054   1.311   5.218 -1.7266  2.1011 -0.8265
   66MOL   H22421154   4.979   0.854   5.303  0.1170 -1.3542  1.6535
   66MOL   H22521155   4.966   0.922   5.468  0.2688  1.5596  0.7239
   66MOL   C22621156   4.791   0.943   5.353  0.6488 -0.1013  0.3687
   66MOL   C22721157   4.728   0.804   5.390 -0.0289 -0.4214  0.8881
   66MOL   C22821158   4.689   0.718   5.287  0.3941 -0.4014  0.1512
   66MOL   C22921159   4.623   0.598   5.323  0.1358 -0.0324 -0.1355
   66MOL  Cl23021160   4.581   0.486   5.200  0.1691  0.1136  0.0478
   66MOL   C23121161   4.609   0.556   5.457 -0.8160 -0.2683 -0.0475
   66MOL   C23221162   4.664   0.637   5.561 -0.3097  0.0592 -0.3248
   66MOL   C23321163   4.728   0.762   5.525 -0.1221 -0.1831  0.3626
   66MOL   C23421164   4.734   1.060   5.439 -0.0556 -0.3189  0.5495
   66MOL   H23521165   4.769   0.954   5.247 -1.4975 -2.6743  0.4956
   66MOL   H23621166   4.704   0.747   5.184  0.6412  1.2911  0.6484
   66MOL   H23721167   4.555   0.466   5.484  0.7204 -0.6187  1.9227
   66MOL   H23821168   4.662   0.606   5.664 -0.0231 -3.6749 -1.3883
   66MOL   H23921169   4.765   0.828   5.602 -0.2087  0.3645 -0.0615
   66MOL   H24021170   4.649   1.013   5.490 -0.9106 -0.6455 -1.1477
   66MOL   H24121171   4.803   1.093   5.517  0.3186 -2.6641  1.2600
   66MOL   C24221172   4.672   1.179   5.363  0.7246 -0.3111 -0.9715
   66MOL   C24321173   4.558   1.120   5.273  0.1227 -0.4117 -0.1988
   66MOL   C24421174   4.582   1.087   5.138  0.0563  0.2490  0.4558
   66MOL   C24521175   4.487   1.025   5.054  0.2450  0.8816 -0.1312
   66MOL  Cl24621176   4.519   0.988   4.890  0.5147 -0.0695  0.3935
   66MOL   C24721177   4.357   1.011   5.106 -0.1795 -0.0061  0.2621
   66MOL   C24821178   4.328   1.035   5.239  0.5248  0.3841 -0.1895
   66MOL   C24921179   4.431   1.102   5.317  0.4509 -0.1419 -0.0372
   66MOL   C25021180   4.627   1.282   5.471  0.4462 -0.7231  0.6900
   66MOL   H25121181   4.741   1.224   5.292 -1.1636  1.5723 -1.6484
   66MOL   H25221182   4.682   1.095   5.098  0.1364 -0.7801  0.4297
   66MOL   H25321183   4.283   0.960   5.046  1.4848 -1.3849 -0.6456
   66MOL   H25421184   4.228   1.013   5.273  0.6498  1.1260  0.6988
   66MOL   H25521185   4.395   1.126   5.416 -0.4249 -1.7732  0.0618
   66MOL   H25621186   4.529   1.319   5.441  1.2621  0.9466  0.0068
   66MOL   H25721187   4.604   1.245   5.571 -0.6044  0.3638  0.8689
   66MOL   C25821188   4.713   1.410   5.488 -0.7647  0.8024 -0.4948
   66MOL   C25921189   4.746   1.476   5.356  0.2005  0.0199 -0.5814
   66MOL   C26021190   4.878   1.482   5.308 -0.3722  0.4941 -0.5279
   66MOL   C26121191   4.909   1.550   5.186 -0.2630 -0.6253 -0.2313
   66MOL  Cl26221192   5.064   1.612   5.147  0.0006 -0.0783  0.0189
   66MOL   C26321193   4.799   1.587   5.105 -0.2895  0.3892 -0.3773
   66MOL   C26421194   4.664   1.567   5.148 -0.1901 -0.5044 -0.0206
   66MOL   C26521195   4.638   1.521   5.276  0.2747 -0.7821 -0.2223
   66MOL   C26621196   4.653   1.502   5.594 -0.5753 -0.1725 -0.2541
   66MOL   H26721197   4.809   1.371   5.523  0.1572  1.7278 -1.9404
   66MOL   H26821198   4.950   1.453   5.383 -0.0598  0.3860 -0.8744
   66MOL   H26921199   4.804   1.626   5.005 -1.1803  0.1936 -0.5076
   66MOL   H27021200   4.582   1.605   5.090 -0.0811 -0.5581 -0.2135
   66MOL   H27121201   4.538   1.511   5.316  0.3924  1.5464  0.7281
   66MOL   H27221202   4.561   1.545   5.553  0.7478  1.2691 -1.8291
   66MOL   H27321203   4.624   1.444   5.681 -0.7695 -0.3584 -0.4428
   66MOL   C27421204   4.747   1.615   5.649 -0.0737  0.5722  0.1167
   66MOL   C27521205   4.712   1.750   5.595  0.1135 -0.8221  0.1542
   66MOL   C27621206   4.601   1.825   5.639 -0.0413 -0.1516 -0.6645
   66MOL   C27721207   4.577   1.955   5.573 -0.6408 -0.0285  0.1071
   66MOL  Cl27821208   4.449   2.060   5.628 -0.5879 -0.1668 -0.3867
   66MOL   C27921209   4.660   1.996   5.469 -0.4103 -0.3088 -0.9046
   66MOL   C28021210   4.761   1.913   5.420  0.1873 -0.2085  0.0261
   66MOL   C28121211   4.781   1.788   5.478  0.0710 -0.6425 -0.6907
   66MOL   C28221212   4.742   1.601   5.805  0.1225  0.1054 -0.1448
   66MOL   H28321213   4.848   1.590   5.616 -0.6902  0.4274 -1.7611
   66MOL   H28421214   4.534   1.786   5.714  1.2533  0.6653  0.9355
   66MOL   H28521215   4.636   2.080   5.406  0.7005 -1.2815 -2.6864
   66MOL   H28621216   4.819   1.938   5.332  1.3315 -0.3786  0.7234
   66MOL   H28721217   4.854   1.726   5.428 -0.3876 -0.8176 -1.1493
   66MOL   H28821218   4.635   1.601   5.829 -0.0581 -2.8409 -0.7254
   66MOL   H28921219   4.778   1.500   5.829  0.1105  0.5756  1.9709
   66MOL   C29021220   4.807   1.716   5.889  0.0311  0.5118  0.4026
   66MOL   C29121221   4.789   1.688   6.039  0.3108  0.0902  0.1168
   66MOL   C29221222   4.865   1.594   6.104 -0.0323 -0.4428  0.1378
   66MOL   C29321223   4.865   1.582   6.243  0.1346 -0.2981  0.1881
   66MOL  Cl29421224   4.935   1.434   6.313 -0.1926  0.0960 -0.1199
   66MOL   C29521225   4.787   1.668   6.318 -0.0939 -0.2599 -0.2707
   66MOL   C29621226   4.717   1.772   6.252  0.0447  0.3349 -0.3502
   66MOL   C29721227   4.711   1.780   6.110 -0.2017 -0.5730 -0.3614
   66MOL   C29821228   4.954   1.756   5.856  0.9794  1.0109 -0.4602
   66MOL   H29921229   4.754   1.805   5.856 -0.8882 -0.4088 -0.6316
   66MOL   H30021230   4.927   1.528   6.045 -1.9226  0.0798 -2.5533
   66MOL   H30121231   4.780   1.658   6.425 -0.7408 -0.5127 -0.3326
   66MOL   H30221232   4.644   1.829   6.309 -1.1742 -1.2483 -0.2965
   66MOL   H30321233   4.652   1.855   6.060  1.3202  0.7009 -0.2556
   66MOL   H30421234   5.012   1.664   5.861  0.2253  0.5698  0.2903
   66MOL   H30521235   4.969   1.784   5.752  1.2576 -1.0493 -0.9888
   66MOL   C30621236   5.017   1.862   5.946  0.6809 -0.0533 -0.1406
   66MOL   C30721237   5.175   1.857   5.940  0.3433 -0.2842 -0.0535
   66MOL   C30821238   5.251   1.973   5.924  0.5374 -0.6444  0.0241
   66MOL   C30921239   5.396   1.970   5.926  0.4270  0.2117 -0.3120
   66MOL  Cl31021240   5.487   2.109   5.889 -0.0321  0.0429  0.0541
   66MOL   C31121241   5.463   1.847   5.932  0.4426  0.2869  0.1286
   66MOL   C31221242   5.388   1.732   5.969 -0.5657 -0.7460  0.5154
   66MOL   C31321243   5.245   1.733   5.960 -0.0991 -0.1629 -0.7378
   66MOL   C31421244   4.952   2.007   5.933 -0.2219 -1.2089 -0.6287
   66MOL   H31521245   5.001   1.822   6.046  0.8706 -1.6244 -0.7171
   66MOL   H31621246   5.202   2.069   5.914  2.5031  0.2056 -1.8943
   66MOL   H31721247   5.569   1.827   5.930  0.7627  1.5903  1.9790
   66MOL   H31821248   5.431   1.633   5.976 -1.8779 -1.4168 -0.6523
   66MOL   H31921249   5.197   1.644   5.999  0.1873  0.2035  0.4573
   66MOL   H32021250   4.989   2.061   5.846 -0.2112 -0.6105 -0.2586
   66MOL   H32121251   4.843   1.999   5.931 -0.2967 -0.5808  0.7917
   66MOL   H32221252   4.976   2.076   6.014  1.5533 -1.9453 -0.5004
   67MOL     C121253   0.282   4.891   1.127 -0.4349  0.2082  0.6339
   67MOL     C221254   0.202   4.762   1.120 -0.3009  0.1542 -0.6352
   67MOL     C321255   0.063   4.768   1.155  0.5732  0.6027  0.4945
   67MOL     C421256   8.421   4.654   1.150 -0.6754 -0.4087  0.5433
   67MOL    Cl521257   8.255   4.644   1.186  0.0523 -0.2958 -0.0467
   67MOL     C621258   0.051   4.532   1.115 -0.5500  0.1264  0.1386
   67MOL     C721259   0.189   4.525   1.086  0.0392  0.8159  0.2129
   67MOL     C821260   0.263   4.640   1.086 -0.4179  0.0538 -0.1864
   67MOL     C921261   0.257   4.982   1.004  0.1982 -0.3136  0.3969
   67MOL    H1021262   0.386   4.863   1.144 -0.3615 -1.2434 -1.8845
   67MOL    H1121263   0.019   4.863   1.184 -0.0627  0.4388  0.0926
   67MOL    H1221264   8.422   4.445   1.115 -1.1462  0.5611 -0.0519
   67MOL    H1321265   0.244   4.433   1.068 -3.8925 -1.4859 -0.6502
   67MOL    H1421266   0.368   4.623   1.066 -0.3537 -0.7921  0.8477
   67MOL    H1521267   0.284   4.927   0.914 -0.2622  0.3051 -0.1298
   67MOL    H1621268   0.150   4.998   0.986  0.6443  1.3400 -0.9738
   67MOL    H1721269   0.250   4.939   1.219  1.6826  0.4047  1.2830
   67MOL    C1821270   0.336   5.122   1.015 -0.4655 -0.1381  0.0807
   67MOL    C1921271   0.478   5.098   1.070 -0.1179  0.2111  0.1576
   67MOL    C2021272   0.512   5.133   1.205  0.0324 -0.3072  0.7805
   67MOL    C2121273   0.646   5.115   1.248  1.1332  0.4588  0.4815
   67MOL   Cl2221274   0.682   5.146   1.413 -0.2098  0.2045 -0.6806
   67MOL    C2321275   0.743   5.070   1.157  0.1103  0.1606  0.6331
   67MOL    C2421276   0.710   5.026   1.026 -0.1156  0.0247 -0.5559
   67MOL    C2521277   0.576   5.037   0.987  0.1063  0.3496 -0.2301
   67MOL    C2621278   0.329   5.187   0.869  0.2897  0.0680 -0.3182
   67MOL    H2721279   0.302   5.191   1.093  0.4995 -1.5235  1.7726
   67MOL    H2821280   0.435   5.175   1.267 -1.2794 -2.1907  0.4711
   67MOL    H2921281   0.843   5.054   1.192 -0.5758 -2.2807  1.5818
   67MOL    H3021282   0.780   4.982   0.956 -2.1093  0.8505 -3.1477
   67MOL    H3121283   0.551   5.001   0.889 -2.5204 -3.6634  1.7958
   67MOL    H3221284   0.365   5.115   0.796  0.4757 -0.1403 -0.0237
   67MOL    H3321285   0.226   5.206   0.840  0.4125 -0.6126 -1.1999
   67MOL    C3421286   0.420   5.312   0.842  0.7011 -0.3245 -0.0817
   67MOL    C3521287   0.431   5.353   0.699  0.3227 -0.1509  0.3594
   67MOL    C3621288   0.556   5.356   0.637 -0.2705  0.3201  0.5702
   67MOL    C3721289   0.566   5.387   0.499  0.3983 -0.0240 -0.0239
   67MOL   Cl3821290   0.722   5.395   0.431 -0.0064 -0.0506 -0.0701
   67MOL    C3921291   0.448   5.412   0.426  0.4059  0.0488 -0.1362
   67MOL    C4021292   0.322   5.405   0.489 -0.5182 -0.0228 -0.3369
   67MOL    C4121293   0.315   5.370   0.627  0.3981 -0.1661 -0.7531
   67MOL    C4221294   0.353   5.425   0.921  0.0956  0.2293  0.4050
   67MOL    H4321295   0.521   5.293   0.876  0.4894 -0.5633  0.4205
   67MOL    H4421296   0.650   5.335   0.687  0.2218  0.7488 -0.1726
   67MOL    H4521297   0.458   5.441   0.323  0.5732  0.7073  0.0593
   67MOL    H4621298   0.235   5.430   0.431  0.7347 -0.3972 -2.4470
   67MOL    H4721299   0.218   5.365   0.676  1.8505  2.5651  2.6379
   67MOL    H4821300   0.270   5.472   0.868  0.4668  0.3376 -0.0881
   67MOL    H4921301   0.326   5.402   1.024 -2.5855  0.4640 -0.2011
   67MOL    C5021302   0.440   5.548   0.946 -0.7019 -0.2500  0.4017
   67MOL    C5121303   0.352   5.672   0.952 -0.2126  0.0259 -0.3879
   67MOL    C5221304   0.228   5.672   1.019  0.2836  0.0925 -0.2462
   67MOL    C5321305   0.154   5.789   1.038  0.0676 -0.0016  0.6585
   67MOL   Cl5421306   0.010   5.785   1.131 -0.0570  0.0752  0.1569
   67MOL    C5521307   0.198   5.905   0.969  0.1115 -0.3267 -0.2575
   67MOL    C5621308   0.316   5.903   0.892 -0.7088 -0.4240  0.7636
   67MOL    C5721309   0.400   5.792   0.894  0.5104  0.6010  0.3887
   67MOL    C5821310   0.535   5.552   1.074  0.7634 -0.3668 -0.4544
   67MOL    H5921311   0.497   5.551   0.853  1.1900 -0.0108  1.5365
   67MOL    H6021312   0.198   5.581   1.069  0.0067  0.4240  0.1870
   67MOL    H6121313   0.136   5.994   0.974  0.0974 -0.2830 -1.0913
   67MOL    H6221314   0.349   5.991   0.838  0.2138 -0.9839  0.4163
   67MOL    H6321315   0.496   5.799   0.845 -0.2523  0.6135 -1.0992
   67MOL    H6421316   0.567   5.655   1.087  0.2600 -0.4051  1.2525
   67MOL    H6521317   0.472   5.536   1.161 -1.7253  0.3458 -2.0800
   67MOL    C6621318   0.659   5.463   1.080  0.6484  0.1426  0.2334
   67MOL    C6721319   0.753   5.476   0.966 -0.2178  0.1116  0.4729
   67MOL    C6821320   0.841   5.367   0.928 -0.2737 -0.6261 -0.7436
   67MOL    C6921321   0.936   5.390   0.825  0.3764 -0.4933  1.0317
   67MOL   Cl7021322   1.037   5.257   0.774  0.1143 -0.1519 -0.2435
   67MOL    C7121323   0.966   5.521   0.771  0.2750  0.1051  0.1836
   67MOL    C7221324   0.882   5.627   0.808 -0.5996  0.7765  0.0147
   67MOL    C7321325   0.784   5.606   0.911 -0.3280 -1.3560 -0.1310
   67MOL    C7421326   0.729   5.477   1.219 -0.1323 -0.4610 -0.1370
   67MOL    H7521327   0.618   5.362   1.066  0.3161  0.0805  1.5838
   67MOL    H7621328   0.836   5.265   0.964  1.0824 -1.1498 -1.9868
   67MOL    H7721329   1.049   5.539   0.704  0.9858 -1.7381  0.5610
   67MOL    H7821330   0.913   5.728   0.788  1.7358  0.2621  0.9258
   67MOL    H7921331   0.724   5.690   0.944 -1.2353 -2.4755  1.1188
   67MOL    H8021332   0.667   5.444   1.302 -1.7127  1.7227 -0.4245
   67MOL    H8121333   0.812   5.407   1.220  0.1859 -0.0802  0.5511
   67MOL    C8221334   0.777   5.622   1.249 -0.2024  0.4888 -0.1957
   67MOL    C8321335   0.668   5.704   1.324 -0.1256  0.1450 -0.3546
   67MOL    C8421336   0.623   5.663   1.455  0.4482  0.8673  0.2706
   67MOL    C8521337   0.524   5.735   1.522  1.5181 -0.0898 -0.1600
   67MOL   Cl8621338   0.462   5.687   1.672 -0.1727 -0.0485 -0.1947
   67MOL    C8721339   0.463   5.846   1.463  0.1204 -0.0091  0.6443
   67MOL    C8821340   0.507   5.885   1.334  0.2104 -0.3286  0.6307
   67MOL    C8921341   0.611   5.817   1.269  0.0678 -0.8130  0.2419
   67MOL    C9021342   0.910   5.629   1.331 -0.4167 -0.7706  0.3822
   67MOL    H9121343   0.799   5.680   1.159 -1.5505 -1.3013 -1.7072
   67MOL    H9221344   0.679   5.583   1.501  0.6135  0.0618 -1.2907
   67MOL    H9321345   0.399   5.905   1.528  0.9206  0.1796  1.2790
   67MOL    H9421346   0.474   5.978   1.291 -0.7049 -0.6261  0.6804
   67MOL    H9521347   0.635   5.852   1.170 -1.2403  0.7917  0.4730
   67MOL    H9621348   0.930   5.720   1.388 -0.2282  0.0033 -0.8888
   67MOL    H9721349   0.902   5.553   1.409 -0.7832 -1.2176 -0.0861
   67MOL    C9821350   1.035   5.598   1.255  0.0730 -0.6332  0.3426
   67MOL    C9921351   1.079   5.704   1.159  0.3930  0.0246  0.7424
   67MOL   C10021352   1.177   5.672   1.064 -0.0122  0.0087  0.7542
   67MOL   C10121353   1.218   5.763   0.968  0.2323 -0.2575 -0.2306
   67MOL  Cl10221354   1.341   5.723   0.857  0.1319  0.1444  0.3092
   67MOL   C10321355   1.152   5.887   0.958 -0.5805 -0.0069 -0.2008
   67MOL   C10421356   1.052   5.922   1.054  0.3792  0.5749  0.4395
   67MOL   C10521357   1.012   5.829   1.154  0.1527  0.5192 -0.0009
   67MOL   C10621358   1.163   5.571   1.337  0.2353  0.1476  0.6711
   67MOL   H10721359   1.013   5.513   1.190 -2.2328 -0.2084  0.5376
   67MOL   H10821360   1.223   5.575   1.053  0.9783  0.3976  1.3548
   67MOL   H10921361   1.196   5.959   0.890 -0.8592  0.5617  0.2082
   67MOL   H11021362   1.006   6.019   1.054  0.6303  0.7160 -1.7818
   67MOL   H11121363   0.949   5.860   1.235 -1.8626 -0.9135 -0.9834
   67MOL   H11221364   1.258   5.598   1.291 -1.3396  1.7694 -1.7604
   67MOL   H11321365   1.148   5.627   1.429  0.7737  0.7848  0.3750
   67MOL   C11421366   1.171   5.422   1.379 -0.0833  0.0804 -0.1224
   67MOL   C11521367   1.173   5.325   1.266 -1.0527 -0.4502  0.9119
   67MOL   C11621368   1.282   5.339   1.172 -0.1651  0.2443 -0.2774
   67MOL   C11721369   1.306   5.233   1.087 -0.2911  0.0205 -0.6502
   67MOL  Cl11821370   1.415   5.263   0.963 -0.1820 -0.1598  0.7474
   67MOL   C11921371   1.216   5.122   1.075 -0.1329  0.0299  0.2510
   67MOL   C12021372   1.102   5.123   1.154 -0.1754  0.1507 -0.3523
   67MOL   C12121373   1.079   5.220   1.257  0.0006  0.6468  0.3619
   67MOL   C12221374   1.292   5.389   1.473  0.8191  0.2007 -0.4727
   67MOL   H12321375   1.071   5.401   1.419  0.0067 -0.8499 -0.3728
   67MOL   H12421376   1.341   5.429   1.163  0.8755 -0.5913 -1.8165
   67MOL   H12521377   1.240   5.053   0.995  0.0678 -0.3443  0.6353
   67MOL   H12621378   1.024   5.049   1.143 -0.0112 -0.1560  0.4689
   67MOL   H12721379   0.982   5.217   1.304 -1.2379  1.0590 -2.0797
   67MOL   H12821380   1.379   5.413   1.412 -0.0614  4.0232 -0.3596
   67MOL   H12921381   1.298   5.455   1.559  1.4852 -2.7208  1.7944
   67MOL   C13021382   1.298   5.247   1.521  0.4186 -1.0585 -0.4511
   67MOL   C13121383   1.438   5.212   1.582  0.5913 -0.2698 -0.4891
   67MOL   C13221384   1.479   5.260   1.710  0.3337  0.8322 -0.2788
   67MOL   C13321385   1.598   5.210   1.774  0.3613  1.6525 -0.1430
   67MOL  Cl13421386   1.629   5.248   1.938 -0.2563  0.0343 -0.1281
   67MOL   C13521387   1.665   5.107   1.710 -0.5066  0.5058 -0.6076
   67MOL   C13621388   1.628   5.059   1.581 -0.7704 -0.2039  0.4403
   67MOL   C13721389   1.514   5.108   1.519 -0.2199  0.3898 -0.2610
   67MOL   C13821390   1.189   5.226   1.623 -0.1934  0.9534 -0.4385
   67MOL   H13921391   1.277   5.182   1.436 -1.7966 -0.0504 -0.7204
   67MOL   H14021392   1.420   5.329   1.768  0.3473  0.8191 -0.2497
   67MOL   H14121393   1.751   5.059   1.754 -0.0385  1.1098 -0.8431
   67MOL   H14221394   1.690   4.980   1.544  0.7425  1.8372 -1.5296
   67MOL   H14321395   1.481   5.061   1.428  2.9164  2.8393 -2.7680
   67MOL   H14421396   1.212   5.279   1.715 -0.7626 -0.3384  0.4551
   67MOL   H14521397   1.098   5.272   1.584 -0.5294 -0.7146 -1.6744
   67MOL   C14621398   1.172   5.069   1.658 -0.3249 -0.0721  0.7332
   67MOL   C14721399   1.125   5.062   1.803 -0.3278 -0.1815  0.0764
   67MOL   C14821400   1.219   5.032   1.903 -0.3690 -0.4954  0.4485
   67MOL   C14921401   1.190   5.052   2.040 -0.4439  0.3577  1.7118
   67MOL  Cl15021402   1.301   5.012   2.166  0.0631  0.2951 -0.3534
   67MOL   C15121403   1.066   5.093   2.072 -0.0684  0.6949 -0.1142
   67MOL   C15221404   0.966   5.105   1.972  0.0510  0.0382  0.5254
   67MOL   C15321405   0.990   5.092   1.836 -0.5346 -0.1185 -0.3212
   67MOL   C15421406   1.081   4.995   1.558  0.1165 -0.4938  0.3891
   67MOL   H15521407   1.269   5.019   1.656 -0.2789  0.0457 -0.2038
   67MOL   H15621408   1.323   5.019   1.874 -0.7563 -1.6064 -0.4524
   67MOL   H15721409   1.045   5.106   2.177  2.3762  0.2799  0.4364
   67MOL   H15821410   0.873   5.156   1.993  0.8018  1.7498 -0.1553
   67MOL   H15921411   0.918   5.097   1.756  0.2294 -1.5698 -1.1259
   67MOL   H16021412   0.989   5.050   1.537  0.2664 -1.3887 -2.8891
   67MOL   H16121413   1.128   4.992   1.460 -1.6052  2.5238 -0.5808
   67MOL   C16221414   1.032   4.852   1.581 -0.6472 -0.0486  0.2012
   67MOL   C16321415   0.931   4.812   1.477  0.1919 -0.2332 -0.4099
   67MOL   C16421416   0.966   4.811   1.341  0.2391  0.0280  0.0372
   67MOL   C16521417   0.868   4.774   1.243 -1.2263  0.2541  0.0865
   67MOL  Cl16621418   0.915   4.774   1.080  0.1721  0.0609  0.1845
   67MOL   C16721419   0.747   4.720   1.274  0.0138 -0.1470 -0.1867
   67MOL   C16821420   0.705   4.732   1.407  0.1865 -0.2543  0.3034
   67MOL   C16921421   0.799   4.776   1.508 -0.4815  0.3769 -0.5592
   67MOL   C17021422   1.155   4.744   1.580  0.0439 -0.3874 -1.0260
   67MOL   H17121423   0.977   4.859   1.675 -1.6562  0.7961 -0.4368
   67MOL   H17221424   1.064   4.833   1.300 -0.3173  0.7105 -0.9635
   67MOL   H17321425   0.683   4.689   1.193 -0.8467  1.9951 -0.3660
   67MOL   H17421426   0.606   4.694   1.425  0.1629 -0.1161  0.4636
   67MOL   H17521427   0.771   4.771   1.612  2.3771  2.4702  0.3782
   67MOL   H17621428   1.127   4.652   1.528 -0.3195 -1.8150  1.6114
   67MOL   H17721429   1.238   4.791   1.527  0.2369 -0.7839 -1.0784
   67MOL   C17821430   1.211   4.691   1.720 -0.0970 -0.2711  0.6916
   67MOL   C17921431   1.092   4.647   1.806  0.0414 -0.2520 -0.4837
   67MOL   C18021432   1.046   4.717   1.920 -0.3824 -0.4497 -0.1817
   67MOL   C18121433   0.931   4.680   1.991 -0.4193  0.8354 -0.3984
   67MOL  Cl18221434   0.872   4.779   2.119  0.0553 -0.3715 -0.1581
   67MOL   C18321435   0.863   4.565   1.948  0.0476 -0.2668  0.7771
   67MOL   C18421436   0.911   4.496   1.839 -0.2354  0.7275 -0.1845
   67MOL   C18521437   1.022   4.533   1.765  0.2314  0.2194 -0.2818
   67MOL   C18621438   1.306   4.574   1.702 -0.3148  0.0366  0.3836
   67MOL   H18721439   1.264   4.773   1.770 -2.5981  2.2985 -0.7226
   67MOL   H18821440   1.085   4.815   1.946  1.7334 -0.9419 -1.3822
   67MOL   H18921441   0.776   4.528   1.999  1.3791 -3.7892  0.6563
   67MOL   H19021442   0.871   4.402   1.804 -1.2662  0.9144  0.4866
   67MOL   H19121443   1.050   4.459   1.692 -1.1541  0.4622 -1.0818
   67MOL   H19221444   1.287   4.509   1.787  2.0916  0.5224  1.3530
   67MOL   H19321445   1.288   4.509   1.616 -0.2569  0.7533 -0.1791
   67MOL   C19421446   1.450   4.626   1.689  0.5840 -0.4882 -0.5512
   67MOL   C19521447   1.499   4.657   1.826 -1.3677 -0.3168 -0.5047
   67MOL   C19621448   1.535   4.552   1.908  0.6298 -0.1646  0.3759
   67MOL   C19721449   1.583   4.578   2.038  0.3542  0.0498 -0.4390
   67MOL  Cl19821450   1.621   4.451   2.148  0.0139 -0.1817  0.3394
   67MOL   C19921451   1.601   4.710   2.089 -0.0876 -0.4636 -0.3242
   67MOL   C20021452   1.561   4.816   2.005  0.4995 -0.2415 -0.0878
   67MOL   C20121453   1.516   4.789   1.876 -0.5312 -0.5824 -0.0195
   67MOL   C20221454   1.543   4.527   1.613 -0.4209  0.1122 -0.7920
   67MOL   H20321455   1.453   4.720   1.634 -1.3777  0.7476  1.3960
   67MOL   H20421456   1.528   4.448   1.881 -2.1780 -0.6834  2.7798
   67MOL   H20521457   1.630   4.726   2.192  1.0165 -0.2157 -0.6660
   67MOL   H20621458   1.572   4.918   2.040 -1.0476  0.1770 -0.7822
   67MOL   H20721459   1.505   4.871   1.806 -0.9743 -1.3460 -0.8507
   67MOL   H20821460   1.533   4.435   1.671 -0.6546  0.1159 -0.8227
   67MOL   H20921461   1.506   4.512   1.511  0.0385 -1.0442 -0.7870
   67MOL   C21021462   1.694   4.555   1.595  1.3516 -0.5934  1.1500
   67MOL   C21121463   1.773   4.493   1.709 -0.5765  0.3815 -0.1686
   67MOL   C21221464   1.772   4.352   1.723  0.1371  0.3851 -0.3090
   67MOL   C21321465   1.832   4.294   1.835 -0.0866  0.2865 -0.0401
   67MOL  Cl21421466   1.823   4.131   1.859 -0.0014  0.2071 -0.5670
   67MOL   C21521467   1.903   4.368   1.929  0.1574 -0.6734 -0.3372
   67MOL   C21621468   1.909   4.507   1.913 -0.1536 -0.1267 -0.3123
   67MOL   C21721469   1.841   4.574   1.808 -0.3159 -0.5440 -0.7736
   67MOL   C21821470   1.749   4.513   1.458  0.5236 -0.5379  0.1177
   67MOL   H21921471   1.715   4.662   1.590  1.1844 -0.6728 -2.5377
   67MOL   H22021472   1.722   4.293   1.647 -0.4085  0.6136 -0.1330
   67MOL   H22121473   1.964   4.317   2.003  0.6063  1.0030  0.4722
   67MOL   H22221474   1.972   4.564   1.980  0.0040  0.6337 -1.1015
   67MOL   H22321475   1.844   4.682   1.803  3.0722 -0.6102 -1.7257
   67MOL   H22421476   1.857   4.509   1.468  0.7874 -1.5379 -2.6612
   67MOL   H22521477   1.712   4.410   1.452 -0.5947 -0.1464  0.1718
   67MOL   C22621478   1.697   4.599   1.332  0.4826 -0.1736 -0.2210
   67MOL   C22721479   1.762   4.736   1.316 -0.1457  0.2665  0.0065
   67MOL   C22821480   1.685   4.839   1.257 -0.1465  0.3088  0.3220
   67MOL   C22921481   1.737   4.964   1.227 -0.3227  0.1057 -0.2230
   67MOL  Cl23021482   1.638   5.092   1.163 -0.1164 -0.0429 -0.1175
   67MOL   C23121483   1.869   4.996   1.266 -0.8851 -0.2869  0.7054
   67MOL   C23221484   1.950   4.898   1.330 -0.0280 -0.0475  0.0256
   67MOL   C23321485   1.898   4.766   1.341  0.0665  0.0040  0.6663
   67MOL   C23421486   1.722   4.517   1.206  0.2874  0.3098  0.4287
   67MOL   H23521487   1.593   4.630   1.341  0.1194 -1.1636 -0.9538
   67MOL   H23621488   1.589   4.821   1.211 -0.0008 -1.0200  0.5207
   67MOL   H23721489   1.909   5.095   1.249  0.4097 -0.5197  2.2596
   67MOL   H23821490   2.049   4.912   1.369 -0.5372  1.1125  0.9145
   67MOL   H23921491   1.955   4.686   1.386  1.1340 -0.5255 -1.5759
   67MOL   H24021492   1.757   4.580   1.124 -0.2849 -2.0283 -1.6810
   67MOL   H24121493   1.810   4.453   1.216 -1.0852 -1.8701 -1.0314
   67MOL   C24221494   1.591   4.444   1.181  0.2315 -0.0928  0.8480
   67MOL   C24321495   1.475   4.540   1.152  0.1852 -0.1285 -1.1975
   67MOL   C24421496   1.494   4.634   1.053 -0.0713  0.6516 -0.2420
   67MOL   C24521497   1.387   4.716   1.020  0.5625 -0.1497  1.3432
   67MOL  Cl24621498   1.396   4.828   0.890 -0.1821  0.0078  0.3460
   67MOL   C24721499   1.266   4.713   1.094 -0.2853 -0.1790 -0.2431
   67MOL   C24821500   1.251   4.621   1.200 -0.0821  0.8498  0.3377
   67MOL   C24921501   1.359   4.536   1.230  0.5943 -1.2002 -1.3687
   67MOL   C25021502   1.606   4.336   1.069 -0.5821 -0.3582  0.6901
   67MOL   H25121503   1.560   4.388   1.270  2.0854  0.3151  1.7796
   67MOL   H25221504   1.589   4.631   1.001 -0.4074  1.0792 -0.8973
   67MOL   H25321505   1.181   4.769   1.060 -0.0206  1.0336  1.0216
   67MOL   H25421506   1.156   4.606   1.248 -0.6372  0.5124 -0.8527
   67MOL   H25521507   1.342   4.468   1.312  0.6328 -0.2892 -0.6015
   67MOL   H25621508   1.513   4.280   1.060 -0.5672 -0.2924  0.1527
   67MOL   H25721509   1.617   4.381   0.971 -0.6281 -0.4168  0.6580
   67MOL   C25821510   1.714   4.230   1.096 -0.7893 -0.0172  0.0533
   67MOL   C25921511   1.723   4.181   1.240 -0.0973 -0.2749  0.0534
   67MOL   C26021512   1.841   4.194   1.316 -0.3390  0.6089  0.2610
   67MOL   C26121513   1.853   4.131   1.438  0.2213 -0.2143 -0.0636
   67MOL  Cl26221514   1.994   4.134   1.532  0.3512 -0.6979 -0.4444
   67MOL   C26321515   1.747   4.063   1.489  0.2903  0.1904  0.3285
   67MOL   C26421516   1.624   4.049   1.416 -0.0004 -0.1981 -0.0564
   67MOL   C26521517   1.614   4.109   1.291  0.5873 -0.5377 -0.0082
   67MOL   C26621518   1.698   4.105   1.001 -0.7522 -0.7474  0.0786
   67MOL   H26721519   1.807   4.286   1.082 -0.1417 -1.2497 -0.6645
   67MOL   H26821520   1.923   4.257   1.284 -2.1412  2.6865 -0.4511
   67MOL   H26921521   1.753   4.013   1.584  0.4318 -0.9130 -0.2558
   67MOL   H27021522   1.536   4.004   1.460 -1.3690  2.2149 -0.2250
   67MOL   H27121523   1.527   4.090   1.230 -0.1199  0.8003  0.5373
   67MOL   H27221524   1.597   4.069   1.024 -1.5959  1.1499 -0.5817
   67MOL   H27321525   1.689   4.137   0.898  0.0905  0.1711  0.2904
   67MOL   C27421526   1.812   4.004   1.018  0.1812  0.4013 -0.0017
   67MOL   C27521527   1.747   3.862   1.049  0.1281 -0.9739 -0.1454
   67MOL   C27621528   1.685   3.790   0.940 -0.6371 -0.3859 -0.1384
   67MOL   C27721529   1.624   3.671   0.972  0.3631  0.0825  0.2168
   67MOL  Cl27821530   1.528   3.587   0.850  0.4388 -0.2172 -0.1878
   67MOL   C27921531   1.640   3.613   1.095  0.0668 -0.4199 -0.4261
   67MOL   C28021532   1.706   3.675   1.202 -0.8452 -1.5401  0.7462
   67MOL   C28121533   1.757   3.802   1.171  0.6860 -0.2109 -0.5943
   67MOL   C28221534   1.905   4.003   0.895  0.1864 -0.0847  0.0763
   67MOL   H28321535   1.867   4.032   1.108  0.2433 -1.7604  0.6736
   67MOL   H28421536   1.672   3.828   0.840  0.0865  2.5211  0.8279
   67MOL   H28521537   1.590   3.521   1.125  1.5416 -1.1436 -0.1489
   67MOL   H28621538   1.713   3.633   1.302  3.3947  0.7191  1.4980
   67MOL   H28721539   1.799   3.862   1.250 -0.9172 -2.2503  1.8858
   67MOL   H28821540   1.956   3.907   0.899 -0.0686 -0.1596  2.7508
   67MOL   H28921541   1.846   4.005   0.804 -0.5311 -1.7047  0.4822
   67MOL   C29021542   2.017   4.112   0.893 -0.0146 -0.0121  0.4166
   67MOL   C29121543   2.113   4.106   1.010  0.5235  0.1500  0.1985
   67MOL   C29221544   2.126   4.215   1.094  0.1457  0.2008 -0.7935
   67MOL   C29321545   2.219   4.215   1.202 -0.5334 -0.0050  0.0277
   67MOL  Cl29421546   2.237   4.338   1.316  0.4485 -0.1972  0.1679
   67MOL   C29521547   2.292   4.093   1.228  0.3122 -0.9167  0.1524
   67MOL   C29621548   2.272   3.980   1.146  0.9061 -0.0363  0.4767
   67MOL   C29721549   2.180   3.984   1.036 -0.0026  0.4465  0.3497
   67MOL   C29821550   2.090   4.118   0.754  0.2241 -0.3874  0.1334
   67MOL   H29921551   1.955   4.199   0.911  0.2978  0.1615  0.6600
   67MOL   H30021552   2.071   4.305   1.073 -0.8328 -0.5620 -1.5312
   67MOL   H30121553   2.364   4.088   1.308 -1.0011  1.1079  1.5270
   67MOL   H30221554   2.335   3.894   1.162 -0.6418 -0.8857  2.1036
   67MOL   H30321555   2.153   3.894   0.982  0.0166 -0.0227  1.1263
   67MOL   H30421556   2.139   4.025   0.723  1.3291  0.1510  0.2607
   67MOL   H30521557   2.012   4.107   0.679 -0.2176 -1.4612  0.7369
   67MOL   C30621558   2.182   4.244   0.732  1.0578  0.2071 -0.0579
   67MOL   C30721559   2.233   4.249   0.587  0.2372  0.3590  0.6327
   67MOL   C30821560   2.359   4.205   0.551 -0.1440 -0.3160 -0.0680
   67MOL   C30921561   2.415   4.207   0.419  0.3319 -0.1666  1.0147
   67MOL  Cl31021562   2.572   4.147   0.386 -0.1354 -0.4425  0.6486
   67MOL   C31121563   2.330   4.243   0.315 -1.0042  0.5639 -0.2293
   67MOL   C31221564   2.198   4.290   0.345  0.8627  0.5795 -0.7262
   67MOL   C31321565   2.151   4.293   0.479  0.4375  0.1309  0.5515
   67MOL   C31421566   2.108   4.374   0.756 -0.4185 -0.6836 -0.5025
   67MOL   H31521567   2.265   4.230   0.801  0.4219  0.7808  0.8403
   67MOL   H31621568   2.422   4.163   0.628  1.3311  0.6934 -0.7178
   67MOL   H31721569   2.367   4.243   0.214  0.5744  2.0021  0.3140
   67MOL   H31821570   2.128   4.326   0.272 -0.1810  0.3991  0.1666
   67MOL   H31921571   2.051   4.329   0.497 -0.7237 -3.1716  1.0488
   67MOL   H32021572   2.163   4.464   0.725  0.6506 -0.9257  0.6619
   67MOL   H32121573   2.015   4.379   0.700 -0.8545  0.1527  0.2827
   67MOL   H32221574   2.094   4.386   0.864  2.3170  0.4456 -0.2256
   68MOL     C121575   5.255   1.996   5.165  0.2001 -0.3517 -0.0933
   68MOL     C221576   5.263   1.969   5.319 -0.2868 -0.1091  0.6250
   68MOL     C321577   5.391   1.943   5.375 -0.2243 -0.1341  0.0083
   68MOL     C421578   5.392   1.911   5.510  0.0709 -0.6901  0.0169
   68MOL    Cl521579   5.541   1.856   5.588 -0.4900  0.1760 -0.5024
   68MOL     C621580   5.274   1.909   5.587 -0.2751  0.4387  0.3559
   68MOL     C721581   5.144   1.943   5.532 -0.0899 -0.6244 -0.7875
   68MOL     C821582   5.138   1.968   5.394 -0.3977  0.3177 -0.1118
   68MOL     C921583   5.185   2.128   5.129 -0.1673  0.4719  0.0401
   68MOL    H1021584   5.198   1.911   5.127 -0.4342  0.4515 -0.9455
   68MOL    H1121585   5.480   1.936   5.315  1.2450 -0.3582  2.1424
   68MOL    H1221586   5.272   1.874   5.689 -1.1826  1.2167  0.6137
   68MOL    H1321587   5.054   1.943   5.592  0.8099  1.9520  0.6579
   68MOL    H1421588   5.040   1.979   5.350 -0.2974 -0.0087 -0.4095
   68MOL    H1521589   5.080   2.104   5.150  0.2976  0.7136  2.8122
   68MOL    H1621590   5.217   2.214   5.188 -0.4382  0.3143  0.4191
   68MOL    H1721591   5.347   1.988   5.108 -0.1061 -1.1359 -0.4809
   68MOL    C1821592   5.200   2.166   4.981  0.0469 -0.2315 -0.0037
   68MOL    C1921593   5.080   2.263   4.963 -0.3539  0.3135 -0.1409
   68MOL    C2021594   4.989   2.237   4.854  0.0270  0.0418  0.1891
   68MOL    C2121595   4.882   2.324   4.835  0.6048  0.7037  0.2932
   68MOL   Cl2221596   4.782   2.309   4.695  0.2438 -0.0567  0.2048
   68MOL    C2321597   4.853   2.425   4.923 -0.5948 -0.0500  0.4224
   68MOL    C2421598   4.931   2.441   5.037 -0.2312  0.7698  0.6013
   68MOL    C2521599   5.046   2.363   5.061  0.1140  0.4962  0.7170
   68MOL    C2621600   5.330   2.238   4.955 -0.2347  0.2740 -1.0768
   68MOL    H2721601   5.186   2.081   4.915  1.0815  1.0514 -1.9318
   68MOL    H2821602   5.010   2.165   4.776 -0.5267 -0.5524  0.5914
   68MOL    H2921603   4.774   2.496   4.903  1.2726  1.3997 -1.9987
   68MOL    H3021604   4.909   2.523   5.105 -0.0136 -0.0008  1.6233
   68MOL    H3121605   5.107   2.389   5.147 -0.3694 -1.3284  1.6215
   68MOL    H3221606   5.345   2.326   5.018  1.8127 -0.8259  0.0313
   68MOL    H3321607   5.411   2.171   4.983  0.6152  1.1544 -1.4269
   68MOL    C3421608   5.355   2.284   4.811 -0.4391  0.1813 -0.1305
   68MOL    C3521609   5.489   2.357   4.811  0.3042 -0.1719 -0.2184
   68MOL    C3621610   5.609   2.286   4.800  0.0236  0.5188 -0.2199
   68MOL    C3721611   5.732   2.344   4.790 -0.6536  0.0696 -0.3793
   68MOL   Cl3821612   5.868   2.247   4.766  0.0086  0.3545  0.1396
   68MOL    C3921613   5.745   2.482   4.799  0.1245  0.0002 -0.2128
   68MOL    C4021614   5.629   2.559   4.820  0.5655  0.1955 -0.0146
   68MOL    C4121615   5.502   2.495   4.828  0.6161 -0.5603 -0.1164
   68MOL    C4221616   5.343   2.167   4.704 -0.4418  0.5893  0.3565
   68MOL    H4321617   5.285   2.364   4.790 -0.2577  0.1108 -0.9932
   68MOL    H4421618   5.618   2.178   4.795  2.0555  0.5942  1.0709
   68MOL    H4521619   5.840   2.534   4.793 -0.0247  0.3981  0.8320
   68MOL    H4621620   5.642   2.666   4.831  1.1337  0.3599 -2.0512
   68MOL    H4721621   5.424   2.568   4.842  1.7485  0.8002 -0.7444
   68MOL    H4821622   5.414   2.087   4.725  0.6608  1.2269 -0.9048
   68MOL    H4921623   5.247   2.115   4.701 -0.2284  0.0368  2.6453
   68MOL    C5021624   5.368   2.214   4.563  0.4464 -0.7696  0.3602
   68MOL    C5121625   5.400   2.089   4.470  0.6208  0.6647  0.0522
   68MOL    C5221626   5.526   2.072   4.409  0.1540  0.2632 -0.1034
   68MOL    C5321627   5.572   1.947   4.355 -0.9559  0.1716 -0.4611
   68MOL   Cl5421628   5.733   1.938   4.298  0.2651  0.0536 -0.0850
   68MOL    C5521629   5.472   1.845   4.335  0.5824 -0.5132 -0.2959
   68MOL    C5621630   5.337   1.880   4.367  0.4697 -0.1796  0.2331
   68MOL    C5721631   5.299   1.997   4.434  0.1736  0.8635 -0.0328
   68MOL    C5821632   5.256   2.299   4.500  0.8356  0.2134  0.3187
   68MOL    H5921633   5.462   2.266   4.545  0.5861 -1.4722 -1.0442
   68MOL    H6021634   5.602   2.149   4.411 -0.9583  1.3607  1.1773
   68MOL    H6121635   5.485   1.740   4.315 -1.1594 -0.6664 -0.7209
   68MOL    H6221636   5.260   1.806   4.350 -0.3682  0.9349 -0.9171
   68MOL    H6321637   5.196   2.008   4.462  0.1601 -1.5285  1.0111
   68MOL    H6421638   5.223   2.256   4.406  0.4729 -0.7839  0.8959
   68MOL    H6521639   5.163   2.281   4.555  0.4635  3.3139  0.8113
   68MOL    C6621640   5.287   2.446   4.486  0.1909 -0.9668  0.2385
   68MOL    C6721641   5.425   2.478   4.435 -0.5436  0.1117  0.6410
   68MOL    C6821642   5.500   2.574   4.502  0.7396 -0.0954  0.0917
   68MOL    C6921643   5.631   2.608   4.453 -0.5346 -0.4173 -0.1910
   68MOL   Cl7021644   5.728   2.724   4.538 -0.2181 -0.2131  0.1334
   68MOL    C7121645   5.680   2.542   4.340 -0.5565 -0.4409 -0.7896
   68MOL    C7221646   5.605   2.453   4.264  0.5454 -0.0785 -0.6266
   68MOL    C7321647   5.482   2.421   4.318  0.7298  0.7429  0.0554
   68MOL    C7421648   5.184   2.516   4.393  0.2375 -0.1291 -0.0820
   68MOL    H7521649   5.282   2.498   4.582 -0.6495  0.8872 -0.7951
   68MOL    H7621650   5.467   2.624   4.592  0.0626 -0.5125  0.0736
   68MOL    H7721651   5.781   2.570   4.311 -1.0226  0.1572 -1.8456
   68MOL    H7821652   5.633   2.423   4.165 -1.6389  0.2629 -1.3728
   68MOL    H7921653   5.419   2.354   4.260 -2.0391  0.7179  2.9559
   68MOL    H8021654   5.230   2.607   4.354 -1.2506  2.0441  3.0030
   68MOL    H8121655   5.169   2.446   4.311 -1.2654  0.4688 -0.3383
   68MOL    C8221656   5.054   2.561   4.462 -0.1727 -0.1543 -0.2032
   68MOL    C8321657   5.080   2.663   4.580  0.4953  0.2031 -0.4948
   68MOL    C8421658   5.124   2.796   4.546  0.2719  0.5150  0.2074
   68MOL    C8521659   5.156   2.891   4.643  0.2158  0.3566  0.3255
   68MOL   Cl8621660   5.216   3.048   4.613 -0.3088  0.0628 -0.0146
   68MOL    C8721661   5.127   2.855   4.781  0.0599  0.0269  0.1841
   68MOL    C8821662   5.092   2.720   4.816 -0.5914  0.3615  1.0096
   68MOL    C8921663   5.064   2.631   4.712 -0.0188  0.9009 -0.2201
   68MOL    C9021664   4.947   2.608   4.366  0.0209 -0.0767  0.6425
   68MOL    H9121665   5.015   2.473   4.513 -1.0028 -0.8506 -1.9708
   68MOL    H9221666   5.146   2.827   4.445  1.4324  0.8801  0.5718
   68MOL    H9321667   5.143   2.926   4.860 -1.1294  2.1037 -1.3932
   68MOL    H9421668   5.069   2.703   4.920 -0.5955  0.4374  1.0210
   68MOL    H9521669   5.025   2.531   4.730  1.1027  0.4075 -0.4781
   68MOL    H9621670   4.858   2.613   4.429 -2.1000 -0.9817 -2.2042
   68MOL    H9721671   4.977   2.707   4.332 -0.2584 -0.4708 -0.7645
   68MOL    C9821672   4.898   2.516   4.248  0.5524 -0.3020 -0.0706
   68MOL    C9921673   4.853   2.372   4.289 -0.7619  0.2979  0.4844
   68MOL   C10021674   4.721   2.340   4.333 -0.8644 -0.5856 -0.3139
   68MOL   C10121675   4.687   2.209   4.371 -0.0743 -0.3766  0.0186
   68MOL  Cl10221676   4.526   2.184   4.432  0.1424 -0.2916  0.2948
   68MOL   C10321677   4.783   2.103   4.379  0.1033 -0.0317 -0.5676
   68MOL   C10421678   4.911   2.137   4.333  0.1302 -0.0550  0.4034
   68MOL   C10521679   4.943   2.266   4.289 -0.6326 -0.9268 -0.1952
   68MOL   C10621680   4.796   2.590   4.164  0.0923 -0.3398 -0.1661
   68MOL   H10721681   4.985   2.508   4.183  2.6236 -0.0737  2.5622
   68MOL   H10821682   4.652   2.418   4.363 -2.0274 -1.5917 -0.3468
   68MOL   H10921683   4.749   2.008   4.419 -0.0632  0.7420  1.1564
   68MOL   H11021684   4.988   2.066   4.356  0.2991 -0.2220 -0.6315
   68MOL   H11121685   5.046   2.295   4.277 -0.1017 -1.0210  3.6021
   68MOL   H11221686   4.697   2.592   4.209  0.6575 -1.1044  1.1644
   68MOL   H11321687   4.820   2.696   4.159 -1.1591 -0.0981 -1.1168
   68MOL   C11421688   4.784   2.539   4.019  0.2742 -0.7332 -0.2747
   68MOL   C11521689   4.643   2.563   3.967 -0.8185  0.0713  0.4441
   68MOL   C11621690   4.596   2.696   3.953  0.9347  0.0129  0.6096
   68MOL   C11721691   4.466   2.728   3.917  0.2426  0.8266  0.3845
   68MOL  Cl11821692   4.419   2.889   3.876  0.3350 -0.2598  0.0377
   68MOL   C11921693   4.372   2.624   3.897  0.3480  0.0242  0.2701
   68MOL   C12021694   4.416   2.492   3.910 -0.1609 -0.6366  0.0491
   68MOL   C12121695   4.551   2.461   3.950  0.0333  0.1572  0.5158
   68MOL   C12221696   4.879   2.615   3.925 -1.0225  0.0568  0.1997
   68MOL   H12321697   4.794   2.431   4.011 -2.2423 -0.9251 -0.9658
   68MOL   H12421698   4.665   2.778   3.963  1.8133 -0.8468  1.6337
   68MOL   H12521699   4.270   2.643   3.868  0.4033  0.3383  0.2809
   68MOL   H12621700   4.343   2.414   3.895 -2.2350  1.0122  1.3096
   68MOL   H12721701   4.577   2.357   3.962 -0.5204 -0.0948 -0.4256
   68MOL   H12821702   4.842   2.590   3.825 -0.4526  1.9965 -0.5162
   68MOL   H12921703   4.866   2.723   3.931  0.4870  0.3642 -1.4506
   68MOL   C13021704   5.029   2.578   3.930 -0.2259  0.2624  0.0793
   68MOL   C13121705   5.063   2.429   3.918  0.0718 -0.8304 -0.0884
   68MOL   C13221706   5.004   2.350   3.814  0.5249 -0.6056  0.7858
   68MOL   C13321707   5.045   2.213   3.796  0.2120 -0.6690  0.3402
   68MOL  Cl13421708   4.994   2.122   3.657  0.4630 -0.0444 -0.4309
   68MOL   C13521709   5.133   2.153   3.891  0.3616  0.5620 -0.0098
   68MOL   C13621710   5.197   2.235   3.989 -0.5341  0.0539  0.5469
   68MOL   C13721711   5.160   2.370   4.000  0.4427  0.2203 -0.4697
   68MOL   C13821712   5.116   2.651   3.827  0.2889  0.4599  1.0312
   68MOL   H13921713   5.066   2.607   4.028  2.0034  0.1783 -0.6939
   68MOL   H14021714   4.938   2.395   3.741 -0.8667 -1.7624  1.2949
   68MOL   H14121715   5.166   2.051   3.882 -1.2072  0.1187 -0.9592
   68MOL   H14221716   5.271   2.195   4.056  2.4832  0.4199 -2.4366
   68MOL   H14321717   5.191   2.440   4.076 -2.0931 -1.3104  2.0816
   68MOL   H14421718   5.220   2.620   3.836 -0.2541 -2.4429 -1.7170
   68MOL   H14521719   5.087   2.617   3.728  0.5411 -0.2257  1.1900
   68MOL   C14621720   5.128   2.806   3.830  0.1258  0.3252 -0.8029
   68MOL   C14721721   5.117   2.858   3.978  0.4503 -0.3716  0.1270
   68MOL   C14821722   5.224   2.832   4.067 -0.5237  0.5253 -0.5460
   68MOL   C14921723   5.224   2.892   4.191 -0.3909  0.4353 -0.3600
   68MOL  Cl15021724   5.360   2.855   4.290 -0.4934 -0.3770 -0.1869
   68MOL   C15121725   5.120   2.972   4.239 -0.4302  0.0970  0.2820
   68MOL   C15221726   5.008   2.998   4.153 -0.5356 -0.3156  0.8415
   68MOL   C15321727   5.009   2.950   4.018 -0.0311  0.3647 -0.1493
   68MOL   C15421728   5.262   2.841   3.755 -0.6752  0.1627 -0.0552
   68MOL   H15521729   5.050   2.845   3.766 -2.7230 -2.0236  1.0897
   68MOL   H15621730   5.318   2.784   4.040 -0.9636 -0.4348 -0.4073
   68MOL   H15721731   5.125   3.006   4.342  1.4364  2.8792 -0.6594
   68MOL   H15821732   4.924   3.053   4.194 -0.9891 -1.3262  1.2732
   68MOL   H15921733   4.930   2.978   3.950 -0.2788  0.9957  0.3985
   68MOL   H16021734   5.346   2.813   3.818  0.7609  3.7855 -0.2312
   68MOL   H16121735   5.269   2.783   3.663  1.1711  0.0606  0.1322
   68MOL   C16221736   5.288   2.983   3.694  0.5343 -0.5387 -0.5550
   68MOL   C16321737   5.237   3.097   3.779 -0.3298  0.6464  0.3696
   68MOL   C16421738   5.299   3.129   3.900  0.4127 -0.1512  0.6384
   68MOL   C16521739   5.250   3.240   3.977  0.0351  0.5193  0.1355
   68MOL  Cl16621740   5.315   3.270   4.129 -0.3055  0.1542  0.0580
   68MOL   C16721741   5.144   3.314   3.930 -0.4217  0.2560 -1.3100
   68MOL   C16821742   5.089   3.287   3.804 -0.2758  0.6391 -0.2006
   68MOL   C16921743   5.131   3.175   3.737  0.0763  0.1008  0.6253
   68MOL   C17021744   5.440   3.000   3.648 -0.3852  0.8037 -0.0231
   68MOL   H17121745   5.226   2.978   3.604 -0.6129 -0.1332  0.2034
   68MOL   H17221746   5.373   3.060   3.940 -0.2374 -0.3711  1.4678
   68MOL   H17321747   5.113   3.393   3.996 -1.1464 -1.8070  0.8816
   68MOL   H17421748   5.006   3.345   3.765 -2.0880 -1.8626 -0.1668
   68MOL   H17521749   5.094   3.149   3.639  0.1523  2.2351 -0.0024
   68MOL   H17621750   5.495   3.047   3.730  1.2783  0.2651 -0.8147
   68MOL   H17721751   5.484   2.901   3.649 -2.2776 -0.0727 -0.8588
   68MOL   C17821752   5.460   3.068   3.510 -0.2382  0.0522  0.4459
   68MOL   C17921753   5.389   3.205   3.508  0.4675 -0.2405 -0.6663
   68MOL   C18021754   5.421   3.307   3.603 -0.3348  0.2745  0.0723
   68MOL   C18121755   5.357   3.430   3.609  0.0335 -0.7208  1.0648
   68MOL  Cl18221756   5.415   3.542   3.726  0.2234 -0.1370 -0.2350
   68MOL   C18321757   5.252   3.456   3.518  0.9586 -0.3757  0.6402
   68MOL   C18421758   5.213   3.357   3.424  0.0513  0.2602 -0.2853
   68MOL   C18521759   5.282   3.230   3.418  0.2123 -0.6012 -1.1239
   68MOL   C18621760   5.615   3.076   3.474  0.5080 -0.1196 -0.5952
   68MOL   H18721761   5.408   3.008   3.435 -0.1186 -0.5035  0.8029
   68MOL   H18821762   5.484   3.274   3.684 -1.5725  0.3657  1.1050
   68MOL   H18921763   5.200   3.551   3.519  1.3636 -0.1527  1.3195
   68MOL   H19021764   5.132   3.389   3.360  0.0963 -1.9331 -1.5013
   68MOL   H19121765   5.242   3.170   3.338  0.4277  0.0414 -1.7241
   68MOL   H19221766   5.660   3.125   3.561 -1.9476  1.5410 -0.2039
   68MOL   H19321767   5.648   2.974   3.458 -3.8090 -1.6401 -0.4268
   68MOL   C19421768   5.647   3.172   3.350  0.0917 -0.8030 -0.1681
   68MOL   C19521769   5.794   3.192   3.322 -0.1543 -0.7533  0.2313
   68MOL   C19621770   5.884   3.090   3.333  0.0469 -0.5350 -0.3594
   68MOL   C19721771   6.019   3.107   3.318 -0.1257  0.6456 -0.7590
   68MOL  Cl19821772   6.127   2.971   3.327 -0.6446  0.1925  0.2821
   68MOL   C19921773   6.067   3.230   3.285 -0.1215  0.6157  0.5533
   68MOL   C20021774   5.984   3.345   3.269 -0.4681  0.6155  0.2713
   68MOL   C20121775   5.848   3.321   3.284  0.7690  0.2377  0.3369
   68MOL   C20221776   5.564   3.118   3.230 -0.6110  0.2343 -0.1231
   68MOL   H20321777   5.605   3.269   3.377  0.1373 -0.9830  0.5588
   68MOL   H20421778   5.848   2.997   3.374  1.0685 -0.9162 -0.3112
   68MOL   H20521779   6.173   3.245   3.273  0.3726 -0.9855  2.7881
   68MOL   H20621780   6.018   3.443   3.238 -1.3358  0.3048 -1.7666
   68MOL   H20721781   5.777   3.401   3.279 -1.0223 -1.3108  0.5003
   68MOL   H20821782   5.612   3.028   3.194 -1.8721  0.0088 -1.2818
   68MOL   H20921783   5.459   3.107   3.257 -1.0205  0.2212 -1.6680
   68MOL   C21021784   5.571   3.211   3.105 -0.3861  0.1790  0.6270
   68MOL   C21121785   5.504   3.148   2.986 -0.5864 -0.4732 -0.2832
   68MOL   C21221786   5.367   3.137   2.980 -0.1246 -1.1415  0.5268
   68MOL   C21321787   5.304   3.092   2.859 -0.2442 -0.4167  0.3459
   68MOL  Cl21421788   5.134   3.094   2.854  0.0211  0.3564  0.0960
   68MOL   C21521789   5.377   3.054   2.741  0.5977 -0.0694 -0.3931
   68MOL   C21621790   5.520   3.067   2.758  0.1861 -0.4082 -0.4175
   68MOL   C21721791   5.588   3.111   2.878  0.7068 -0.2621  1.0978
   68MOL   C21821792   5.513   3.357   3.128 -0.0871 -0.0265  0.0292
   68MOL   H21921793   5.677   3.220   3.079 -0.7395 -0.4736 -1.0800
   68MOL   H22021794   5.298   3.166   3.058  1.0974 -1.8573  1.8926
   68MOL   H22121795   5.324   3.021   2.652  2.9824  1.2759 -2.3941
   68MOL   H22221796   5.577   3.034   2.672 -1.3088  0.4601 -1.7635
   68MOL   H22321797   5.696   3.119   2.881  0.6761 -0.1293  2.0822
   68MOL   H22421798   5.409   3.344   3.159 -0.0251 -1.0192 -0.1565
   68MOL   H22521799   5.574   3.392   3.211 -0.3198 -3.2005  1.6440
   68MOL   C22621800   5.533   3.474   3.031  0.2278  0.2443 -0.0568
   68MOL   C22721801   5.684   3.505   3.004  0.6591 -0.1228 -0.6268
   68MOL   C22821802   5.762   3.414   2.930 -0.2281  0.3675  0.3635
   68MOL   C22921803   5.900   3.435   2.909 -0.3147 -0.1710  0.4270
   68MOL  Cl23021804   5.982   3.322   2.804 -0.1957 -0.3081  0.1447
   68MOL   C23121805   5.965   3.548   2.964 -0.1298 -0.0641 -0.8268
   68MOL   C23221806   5.884   3.638   3.033  1.1697 -0.7615 -0.4889
   68MOL   C23321807   5.746   3.618   3.056 -0.5771  0.2448 -0.0377
   68MOL   C23421808   5.449   3.459   2.901  0.1456  0.5486  0.2641
   68MOL   H23521809   5.486   3.553   3.089 -1.4179 -1.0415  0.4120
   68MOL   H23621810   5.725   3.329   2.874 -0.7898  0.6259  0.3335
   68MOL   H23721811   6.067   3.576   2.945  0.4828 -1.8677 -0.3418
   68MOL   H23821812   5.930   3.729   3.068  1.3667 -1.3364  0.7747
   68MOL   H23921813   5.682   3.695   3.096 -3.5377 -0.6780 -2.7558
   68MOL   H24021814   5.496   3.378   2.845  0.9517  0.0995  1.5463
   68MOL   H24121815   5.355   3.429   2.948 -0.9659  0.3676 -2.0298
   68MOL   C24221816   5.414   3.579   2.819 -0.2462 -0.1739  0.3536
   68MOL   C24321817   5.364   3.524   2.689  0.5830 -0.5326  0.5462
   68MOL   C24421818   5.224   3.507   2.665 -0.7213  0.6015  0.5117
   68MOL   C24521819   5.173   3.467   2.538 -0.3667 -0.0996  0.0464
   68MOL  Cl24621820   4.999   3.450   2.506 -0.3724  0.2396 -0.3118
   68MOL   C24721821   5.265   3.442   2.437 -0.6570  0.6244  0.1402
   68MOL   C24821822   5.401   3.459   2.451  0.3207 -0.6655 -0.3702
   68MOL   C24921823   5.447   3.497   2.576 -0.7080  0.3137  0.3252
   68MOL   C25021824   5.330   3.693   2.882  0.1368 -0.2053  1.0035
   68MOL   H25121825   5.507   3.632   2.796  0.2469 -1.1153  0.1467
   68MOL   H25221826   5.146   3.522   2.738 -2.5597  0.9350 -1.4732
   68MOL   H25321827   5.232   3.429   2.335  0.4080 -1.0625 -0.0261
   68MOL   H25421828   5.471   3.446   2.370 -0.2410  1.4589 -1.2157
   68MOL   H25521829   5.553   3.513   2.588 -0.6518  2.9430 -2.9904
   68MOL   H25621830   5.244   3.639   2.921  0.0447 -0.0227  1.0525
   68MOL   H25721831   5.390   3.747   2.954  1.3057  1.2963 -1.0380
   68MOL   C25821832   5.283   3.810   2.793  0.1619 -0.5036  0.7576
   68MOL   C25921833   5.210   3.921   2.870 -0.4485  0.1532 -0.3385
   68MOL   C26021834   5.071   3.945   2.864 -0.2173 -0.7855  0.0453
   68MOL   C26121835   5.007   4.039   2.946 -0.6112  0.0909  0.5499
   68MOL  Cl26221836   4.839   4.048   2.932  0.1621 -0.5014 -0.0114
   68MOL   C26321837   5.082   4.108   3.042  0.4011  0.2088  1.3118
   68MOL   C26421838   5.221   4.092   3.047 -0.1011  0.0641 -0.6983
   68MOL   C26521839   5.286   4.000   2.964  0.2743  0.1968  0.2098
   68MOL   C26621840   5.407   3.876   2.703  0.1894 -0.2194  0.1512
   68MOL   H26721841   5.203   3.771   2.729 -0.1640 -0.0239  0.8708
   68MOL   H26821842   5.005   3.881   2.806 -1.3609 -0.6459  1.1708
   68MOL   H26921843   5.031   4.176   3.109  0.6059 -0.7558  2.4504
   68MOL   H27021844   5.276   4.143   3.124  3.1960 -4.4643  0.0879
   68MOL   H27121845   5.394   3.993   2.972  0.2777  1.6729  1.8171
   68MOL   H27221846   5.500   3.856   2.755  0.7308  0.4917 -0.5197
   68MOL   H27321847   5.415   3.805   2.621  3.2050  1.1155 -0.7676
   68MOL   C27421848   5.406   4.023   2.640  0.3717  0.5463  0.0113
   68MOL   C27521849   5.528   4.045   2.560  0.2251 -0.2327 -0.4479
   68MOL   C27621850   5.547   3.962   2.450  0.2838 -0.3450 -0.1841
   68MOL   C27721851   5.660   3.989   2.369 -0.2180 -0.2759  0.1677
   68MOL  Cl27821852   5.679   3.893   2.231  0.2039  0.2225  0.1168
   68MOL   C27921853   5.752   4.091   2.401 -0.2450  0.3427  1.1236
   68MOL   C28021854   5.732   4.172   2.509  0.1894 -0.6259 -0.6354
   68MOL   C28121855   5.622   4.147   2.593 -0.7563  0.4305 -0.4272
   68MOL   C28221856   5.276   4.037   2.551 -0.3095  1.0490 -0.3655
   68MOL   H28321857   5.411   4.092   2.724 -0.4541 -0.6116  1.0351
   68MOL   H28421858   5.488   3.876   2.423 -1.7363  0.3254  1.9148
   68MOL   H28521859   5.839   4.107   2.340 -0.6351  2.4951  1.1044
   68MOL   H28621860   5.801   4.253   2.525 -0.2739 -0.4620  0.5759
   68MOL   H28721861   5.609   4.212   2.678  0.4001  0.7899 -0.5204
   68MOL   H28821862   5.299   4.021   2.446 -1.0544  0.4449 -0.4369
   68MOL   H28921863   5.198   3.966   2.578  0.0612  1.1545  1.0278
   68MOL   C29021864   5.213   4.173   2.582 -0.3612 -0.4247 -0.2796
   68MOL   C29121865   5.309   4.283   2.542 -0.7575 -0.2081  0.0557
   68MOL   C29221866   5.337   4.310   2.403  0.3718 -0.4028  0.0566
   68MOL   C29321867   5.422   4.413   2.369 -0.4767  0.1790  0.0925
   68MOL  Cl29421868   5.470   4.424   2.198 -0.0677 -0.2233  0.0112
   68MOL   C29521869   5.487   4.488   2.468 -0.3751  0.1144  0.3932
   68MOL   C29621870   5.463   4.466   2.604  0.3999  0.3527 -0.5588
   68MOL   C29721871   5.364   4.372   2.643  0.2544 -0.1678 -0.4954
   68MOL   C29821872   5.074   4.189   2.525  0.2048  0.0005  0.0333
   68MOL   H29921873   5.196   4.179   2.689  2.2275 -0.1999  0.1596
   68MOL   H30021874   5.292   4.248   2.326  1.5544  1.0593 -1.8591
   68MOL   H30121875   5.559   4.564   2.444 -0.3596  0.3574  1.1670
   68MOL   H30221876   5.503   4.536   2.676  0.5246  1.6199 -1.8591
   68MOL   H30321877   5.344   4.366   2.749 -1.6660  1.7084 -0.7148
   68MOL   H30421878   5.087   4.186   2.417  0.6259 -1.6618  0.1067
   68MOL   H30521879   5.007   4.106   2.547  1.1027 -0.2928  1.7617
   68MOL   C30621880   4.999   4.325   2.553 -0.0814  0.0476  0.6386
   68MOL   C30721881   4.896   4.345   2.444 -0.3943  0.8347 -0.2655
   68MOL   C30821882   4.930   4.428   2.338 -0.4888 -0.2354 -0.1932
   68MOL   C30921883   4.844   4.446   2.231  0.2967  0.1751  0.2924
   68MOL  Cl31021884   4.882   4.567   2.113 -0.4517 -0.1995 -0.3771
   68MOL   C31121885   4.726   4.379   2.227 -0.1844  0.7309  0.3301
   68MOL   C31221886   4.681   4.293   2.327 -0.1054  0.1194 -0.5603
   68MOL   C31321887   4.773   4.277   2.437  0.8058  0.1550 -0.1631
   68MOL   C31421888   4.928   4.333   2.687 -0.0250 -0.6450 -0.1934
   68MOL   H31521889   5.070   4.407   2.552 -0.7031  0.5917  0.6419
   68MOL   H31621890   5.010   4.500   2.340  0.2575 -0.9860 -2.2334
   68MOL   H31721891   4.658   4.389   2.144 -1.1719  0.7211  1.1307
   68MOL   H31821892   4.586   4.243   2.322 -0.2738  0.6183 -4.6344
   68MOL   H31921893   4.754   4.206   2.516  0.5179  0.8607  0.4050
   68MOL   H32021894   4.864   4.421   2.699 -0.3549 -0.6850 -1.5594
   68MOL   H32121895   4.864   4.247   2.703 -1.4382  0.4636  0.2837
   68MOL   H32221896   4.995   4.321   2.772  0.0506  1.3879  0.0704
   69MOL     C121897   6.326   2.290   5.620  0.4116  0.8094  0.1522
   69MOL     C221898   6.366   2.141   5.630 -0.6973 -0.0993  0.2354
   69MOL     C321899   6.392   2.068   5.511 -0.5030  0.7338  0.2316
   69MOL     C421900   6.432   1.932   5.506  0.0635 -0.0625 -0.9691
   69MOL    Cl521901   6.457   1.856   5.355 -0.2271  0.2898  0.2894
   69MOL     C621902   6.438   1.863   5.631  0.5400 -0.0689 -0.0666
   69MOL     C721903   6.409   1.935   5.750 -0.6046 -0.3569  0.8710
   69MOL     C821904   6.373   2.070   5.752  0.4844  0.5117  0.2107
   69MOL     C921905   6.444   2.388   5.620 -0.4332 -0.5502 -0.1621
   69MOL    H1021906   6.264   2.319   5.705  0.4985 -2.4317  1.3629
   69MOL    H1121907   6.384   2.112   5.413  1.8732 -1.2862 -0.9337
   69MOL    H1221908   6.468   1.760   5.622 -1.8096 -0.6366 -2.2403
   69MOL    H1321909   6.413   1.885   5.846 -2.0458 -2.3409 -0.0380
   69MOL    H1421910   6.345   2.113   5.847  0.8076  0.0899  0.4978
   69MOL    H1521911   6.513   2.360   5.540 -0.5806  0.9326 -0.8274
   69MOL    H1621912   6.406   2.486   5.592 -3.2293 -1.0811  1.6093
   69MOL    H1721913   6.258   2.300   5.535  0.9510 -1.6691 -0.6015
   69MOL    C1821914   6.521   2.393   5.756  0.9759  0.1701  0.6907
   69MOL    C1921915   6.661   2.449   5.734 -0.6271  0.2242 -0.4524
   69MOL    C2021916   6.672   2.589   5.717 -0.6653 -0.0079  0.2173
   69MOL    C2121917   6.801   2.643   5.693  0.4639  0.6344  0.6730
   69MOL   Cl2221918   6.813   2.812   5.662 -0.0052 -0.0605  0.0974
   69MOL    C2321919   6.913   2.567   5.686 -0.3915 -0.2424  0.0157
   69MOL    C2421920   6.903   2.428   5.709 -0.0558  0.5104 -0.1686
   69MOL    C2521921   6.777   2.366   5.735 -0.0596  0.3244  0.5389
   69MOL    C2621922   6.442   2.457   5.876 -0.8849 -0.3372 -0.1003
   69MOL    H2721923   6.556   2.295   5.788 -0.6161 -0.5237  0.3418
   69MOL    H2821924   6.585   2.653   5.719 -1.9373 -1.7136 -0.2107
   69MOL    H2921925   7.009   2.611   5.661 -0.8574  0.5031 -0.5026
   69MOL    H3021926   6.988   2.363   5.691 -0.1108  0.1979  0.6675
   69MOL    H3121927   6.761   2.261   5.752 -1.3498  0.6579  1.4963
   69MOL    H3221928   6.423   2.561   5.848 -2.1645 -0.4355  0.3707
   69MOL    H3321929   6.340   2.418   5.877 -0.6904 -0.8357  0.4243
   69MOL    C3421930   6.500   2.440   6.024  0.3628  0.8250 -0.3047
   69MOL    C3521931   6.480   2.566   6.114  0.3281  0.3824 -0.4430
   69MOL    C3621932   6.353   2.595   6.168 -0.3409 -0.5335 -0.0087
   69MOL    C3721933   6.342   2.689   6.277 -0.2868 -0.1358  0.2643
   69MOL   Cl3821934   6.194   2.715   6.358  0.3199  0.1185  0.1005
   69MOL    C3921935   6.450   2.775   6.313  0.5157  0.4195  0.5263
   69MOL    C4021936   6.572   2.756   6.249 -0.1976  0.4086  1.0570
   69MOL    C4121937   6.590   2.652   6.150 -0.1372 -0.1380 -0.0494
   69MOL    C4221938   6.450   2.313   6.098  0.4587  0.1602  0.4548
   69MOL    H4321939   6.608   2.425   6.014  0.0724 -0.4631 -1.6516
   69MOL    H4421940   6.275   2.524   6.144  0.9376 -2.2224  0.7411
   69MOL    H4521941   6.447   2.856   6.385 -0.2381 -0.4376  1.4678
   69MOL    H4621942   6.663   2.810   6.267  0.1735 -0.3837  1.5449
   69MOL    H4721943   6.691   2.625   6.124 -0.2387 -1.4179  0.8838
   69MOL    H4821944   6.343   2.302   6.082  0.3557  3.1112 -1.1707
   69MOL    H4921945   6.488   2.229   6.041  3.4769  1.6941  0.1125
   69MOL    C5021946   6.479   2.302   6.255 -0.6704 -0.2877 -0.2390
   69MOL    C5121947   6.410   2.184   6.318  0.2451  0.2386  0.1115
   69MOL    C5221948   6.426   2.057   6.267  0.1927 -0.1828  0.4810
   69MOL    C5321949   6.354   1.946   6.324 -0.3034  0.3684  0.0384
   69MOL   Cl5421950   6.350   1.791   6.249  0.0245 -0.0921  0.1332
   69MOL    C5521951   6.287   1.965   6.447  0.5670  0.2468 -0.3276
   69MOL    C5621952   6.286   2.088   6.511  0.1477  0.6792  0.7043
   69MOL    C5721953   6.340   2.200   6.445  0.9611 -0.2451  0.0825
   69MOL    C5821954   6.629   2.287   6.290 -0.6162 -0.3948  0.3323
   69MOL    H5921955   6.433   2.388   6.304  0.5354  0.5488 -0.5460
   69MOL    H6021956   6.477   2.039   6.174 -0.2266  0.2789  0.1590
   69MOL    H6121957   6.234   1.883   6.493  2.4625 -0.1176  1.2564
   69MOL    H6221958   6.226   2.102   6.599 -1.0580  1.2047 -0.1918
   69MOL    H6321959   6.335   2.300   6.485 -0.5094 -0.4179  0.3719
   69MOL    H6421960   6.662   2.184   6.274 -1.4097 -0.5423 -0.3586
   69MOL    H6521961   6.695   2.358   6.241  2.1985 -1.7702  1.9953
   69MOL    C6621962   6.671   2.296   6.445 -0.2078  0.5298 -0.3670
   69MOL    C6721963   6.801   2.224   6.467 -0.0363  0.3812 -0.7398
   69MOL    C6821964   6.913   2.264   6.390 -0.0836  0.8838 -0.5400
   69MOL    C6921965   7.026   2.179   6.399 -0.2607 -0.4603 -0.0152
   69MOL   Cl7021966   7.157   2.226   6.306 -0.1566 -0.2630 -0.4854
   69MOL    C7121967   7.034   2.064   6.479  0.4452  0.1040 -0.1119
   69MOL    C7221968   6.923   2.026   6.560  0.5135  0.2109  0.5134
   69MOL    C7321969   6.807   2.111   6.554 -0.6312 -0.6930  0.3244
   69MOL    C7421970   6.666   2.444   6.477 -0.6122  0.2797  0.0676
   69MOL    H7521971   6.601   2.233   6.501  0.4895 -0.3679 -0.4935
   69MOL    H7621972   6.914   2.347   6.322  0.4979 -0.0387 -1.6803
   69MOL    H7721973   7.127   2.009   6.481  0.5691  0.2913 -0.5604
   69MOL    H7821974   6.924   1.936   6.620  2.0140 -0.3194 -0.2775
   69MOL    H7921975   6.723   2.074   6.612  0.1790 -0.6206  1.5799
   69MOL    H8021976   6.755   2.492   6.436  0.1912 -1.3276 -0.1162
   69MOL    H8121977   6.568   2.481   6.447  0.1190  1.3282 -1.0835
   69MOL    C8221978   6.684   2.471   6.630 -0.3772 -0.5057  0.2761
   69MOL    C8321979   6.685   2.623   6.651  0.2856 -0.2685 -0.5219
   69MOL    C8421980   6.804   2.692   6.686  0.2308  0.1692 -0.3191
   69MOL    C8521981   6.809   2.827   6.703  0.1716 -0.1101 -0.7546
   69MOL   Cl8621982   6.958   2.894   6.740  0.0944  0.3045 -0.0791
   69MOL    C8721983   6.693   2.903   6.685  0.2550 -0.2194 -0.3443
   69MOL    C8821984   6.572   2.842   6.658  0.0177 -0.5635 -0.1152
   69MOL    C8921985   6.564   2.703   6.646  0.7619  0.4987 -0.0377
   69MOL    C9021986   6.586   2.392   6.729 -0.1032 -0.0298  0.4421
   69MOL    H9121987   6.779   2.427   6.659  1.0592  2.1050 -0.3467
   69MOL    H9221988   6.899   2.642   6.697  1.2145  1.9892 -0.3702
   69MOL    H9321989   6.688   3.011   6.694 -1.3905 -0.3594  0.6802
   69MOL    H9421990   6.481   2.899   6.659  1.0462  1.1297  0.9561
   69MOL    H9521991   6.473   2.648   6.628  0.3126  0.7964  1.2317
   69MOL    H9621992   6.485   2.386   6.689  0.2474 -0.2872 -0.4240
   69MOL    H9721993   6.611   2.286   6.730 -0.3510 -0.0810  1.5222
   69MOL    C9821994   6.589   2.442   6.880  1.1538 -0.6997 -0.1309
   69MOL    C9921995   6.467   2.369   6.942 -0.1954  0.3329  0.0414
   69MOL   C10021996   6.463   2.228   6.960  0.1348 -0.7023  0.3125
   69MOL   C10121997   6.342   2.166   7.002 -0.2002 -0.0637 -0.4005
   69MOL  Cl10221998   6.351   1.990   7.024  0.1740 -0.0947  0.3449
   69MOL   C10321999   6.231   2.241   7.040  0.0092 -0.5611 -0.1623
   69MOL   C10422000   6.237   2.387   7.028 -0.3589  0.3524 -0.1348
   69MOL   C10522001   6.353   2.448   6.981 -0.1392  0.6348  0.0586
   69MOL   C10622002   6.727   2.425   6.944 -0.7166  0.3374 -0.3914
   69MOL   H10722003   6.567   2.549   6.880  0.2975 -0.8698 -0.8445
   69MOL   H10822004   6.548   2.165   6.939  0.1260 -0.5003 -0.3363
   69MOL   H10922005   6.135   2.201   7.070 -0.7154  1.9988  1.0811
   69MOL   H11022006   6.151   2.446   7.056 -0.1157  0.7655 -0.2486
   69MOL   H11122007   6.355   2.556   6.983  1.1584  0.8432 -5.1417
   69MOL   H11222008   6.772   2.326   6.944 -2.3127 -0.4060 -0.5248
   69MOL   H11322009   6.785   2.489   6.877 -0.1083  0.6214  0.3967
   69MOL   C11422010   6.746   2.477   7.092 -0.3964  0.2601  0.2189
   69MOL   C11522011   6.691   2.379   7.199 -0.6162 -0.2980  1.1450
   69MOL   C11622012   6.759   2.254   7.221 -0.1490 -0.4344 -0.4155
   69MOL   C11722013   6.694   2.156   7.292 -0.3109 -0.1382 -0.6748
   69MOL  Cl11822014   6.781   2.004   7.295  0.0165  0.1939  0.5536
   69MOL   C11922015   6.575   2.183   7.363  0.7268  0.8954 -0.1118
   69MOL   C12022016   6.510   2.309   7.348  0.2120 -1.3981  0.0307
   69MOL   C12122017   6.569   2.407   7.264  0.0084  0.1119  0.4921
   69MOL   C12222018   6.893   2.516   7.109  0.2093 -0.3040 -0.0258
   69MOL   H12322019   6.687   2.568   7.108 -4.8639 -2.6427  1.0403
   69MOL   H12422020   6.845   2.220   7.164 -1.0181 -2.4614 -0.5589
   69MOL   H12522021   6.536   2.111   7.434  1.4726 -0.1855 -0.7891
   69MOL   H12622022   6.425   2.327   7.411  1.0373  1.6301  0.3611
   69MOL   H12722023   6.517   2.497   7.236  0.5278 -0.6118 -3.1632
   69MOL   H12822024   6.917   2.517   7.215 -1.0093 -0.0344  0.2591
   69MOL   H12922025   6.949   2.434   7.065 -0.7505 -1.8295  1.5475
   69MOL   C13022026   6.927   2.652   7.049  0.1898  0.6946 -0.0705
   69MOL   C13122027   6.842   2.768   7.110  0.4651  0.4796  0.2394
   69MOL   C13222028   6.871   2.835   7.228  0.1207  0.2392  0.6351
   69MOL   C13322029   6.802   2.939   7.287  0.8257  0.3436  0.1910
   69MOL  Cl13422030   6.864   3.019   7.428 -0.0081  0.1742 -0.1402
   69MOL   C13522031   6.680   2.970   7.240 -0.0264  0.4419  0.0251
   69MOL   C13622032   6.638   2.903   7.125  0.8725  0.2352 -0.4331
   69MOL   C13722033   6.721   2.814   7.056 -0.1409 -0.5636 -0.2255
   69MOL   C13822034   7.082   2.672   7.073  0.3585 -0.1075 -0.3387
   69MOL   H13922035   6.908   2.658   6.942 -3.1068 -0.3762  0.4017
   69MOL   H14022036   6.966   2.822   7.277 -0.2873  0.3701  1.4761
   69MOL   H14122037   6.614   3.042   7.285 -1.6790 -0.5847 -0.7138
   69MOL   H14222038   6.546   2.934   7.077 -0.2062  0.2972  1.5830
   69MOL   H14322039   6.695   2.776   6.958  0.0843 -2.2413  0.3466
   69MOL   H14422040   7.112   2.758   7.013 -1.1140  1.0033  0.4885
   69MOL   H14522041   7.089   2.700   7.178 -3.9600 -2.5910  0.7415
   69MOL   C14622042   7.183   2.557   7.033 -0.2089  0.0191  0.3797
   69MOL   C14722043   7.168   2.513   6.883  0.2458  1.4742 -0.0395
   69MOL   C14822044   7.198   2.610   6.783 -0.1546  0.1010 -0.6298
   69MOL   C14922045   7.178   2.587   6.648 -0.3516  0.3585 -0.3287
   69MOL  Cl15022046   7.198   2.718   6.533  0.5283 -0.1738  0.2885
   69MOL   C15122047   7.134   2.460   6.612 -0.0214 -0.4831  0.0888
   69MOL   C15222048   7.110   2.357   6.703  1.3930  0.1561  0.4554
   69MOL   C15322049   7.127   2.388   6.838  0.6030  0.1348 -0.3500
   69MOL   C15422050   7.330   2.587   7.070  0.3225  0.8454 -0.0018
   69MOL   H15522051   7.164   2.467   7.092  0.2297 -0.1608  0.2466
   69MOL   H15622052   7.218   2.711   6.812  1.0306 -0.1609 -0.5165
   69MOL   H15722053   7.129   2.437   6.507  0.5063  0.4209 -0.1400
   69MOL   H15822054   7.083   2.256   6.674  2.1365  0.7658 -2.5001
   69MOL   H15922055   7.106   2.311   6.910  2.5785 -0.3436 -0.2675
   69MOL   H16022056   7.356   2.682   7.026 -1.5632  1.0167 -0.8167
   69MOL   H16122057   7.327   2.603   7.178  2.6036  0.3834  0.1498
   69MOL   C16222058   7.439   2.479   7.036  0.1119 -0.4330 -0.1551
   69MOL   C16322059   7.580   2.531   7.073 -0.7641  0.4575  0.3564
   69MOL   C16422060   7.639   2.532   7.201 -0.1107  0.5057  0.4369
   69MOL   C16522061   7.766   2.592   7.221  0.2838  0.7296  0.5791
   69MOL  Cl16622062   7.837   2.582   7.374  0.2445 -0.0669 -0.5508
   69MOL   C16722063   7.830   2.656   7.114 -0.3234  0.6416  1.4227
   69MOL   C16822064   7.774   2.644   6.984 -0.0289 -0.4340 -0.3798
   69MOL   C16922065   7.648   2.590   6.962  0.2530  0.5875 -0.2145
   69MOL   C17022066   7.407   2.345   7.115  0.5916  0.8737 -0.2660
   69MOL   H17122067   7.435   2.457   6.929  1.4252 -2.0210  0.1007
   69MOL   H17222068   7.591   2.484   7.286 -0.3585 -1.3417 -0.7046
   69MOL   H17322069   7.929   2.697   7.124 -0.9765  3.2630 -1.7210
   69MOL   H17422070   7.832   2.699   6.912 -0.6044  0.5243 -0.1120
   69MOL   H17522071   7.603   2.582   6.865  1.0752  2.1034 -0.7290
   69MOL   H17622072   7.395   2.373   7.219  0.0681 -1.7287  0.4096
   69MOL   H17722073   7.313   2.308   7.074  0.4752  0.6784  0.1724
   69MOL   C17822074   7.509   2.230   7.106 -0.1991 -0.6515 -0.0116
   69MOL   C17922075   7.471   2.121   7.207 -0.1893 -0.5859  0.0627
   69MOL   C18022076   7.411   2.001   7.168  0.0507  0.6310  0.3803
   69MOL   C18122077   7.386   1.899   7.264  0.2256  0.0616 -0.1622
   69MOL  Cl18222078   7.318   1.745   7.227  0.4947 -0.1360 -0.1147
   69MOL   C18322079   7.419   1.926   7.397  1.0263 -0.0790 -0.9269
   69MOL   C18422080   7.493   2.039   7.435 -0.0470 -0.5077  0.1200
   69MOL   C18522081   7.513   2.137   7.342 -0.0399 -0.2747  0.1572
   69MOL   C18622082   7.531   2.181   6.963 -0.0499  0.1874 -0.0682
   69MOL   H18722083   7.609   2.269   7.126 -1.3486  1.9227  0.8931
   69MOL   H18822084   7.373   1.982   7.069  1.4550  0.8373 -0.2042
   69MOL   H18922085   7.387   1.854   7.470  0.1350  0.0352 -1.1932
   69MOL   H19022086   7.527   2.061   7.535  0.2500  1.9824 -0.5009
   69MOL   H19122087   7.560   2.226   7.382  2.0193 -0.2303 -2.2441
   69MOL   H19222088   7.432   2.156   6.923 -0.8930  1.4963  1.1623
   69MOL   H19322089   7.565   2.254   6.890 -2.4224  0.1862 -1.2252
   69MOL   C19422090   7.631   2.061   6.946  0.5011 -0.5571  0.2293
   69MOL   C19522091   7.552   1.948   6.873  0.6989 -0.6289 -0.6256
   69MOL   C19622092   7.564   1.817   6.929 -0.0047 -0.6687  0.1758
   69MOL   C19722093   7.504   1.711   6.863 -0.5313  0.2658  0.5390
   69MOL  Cl19822094   7.537   1.548   6.912  0.2776 -0.3421  0.3419
   69MOL   C19922095   7.427   1.729   6.745 -0.4262 -0.2030  0.0015
   69MOL   C20022096   7.404   1.861   6.701 -1.0302 -0.6020  0.4475
   69MOL   C20122097   7.472   1.967   6.758 -0.1656 -0.3341 -1.1211
   69MOL   C20222098   7.764   2.086   6.871  0.1451 -0.3582  0.7316
   69MOL   H20322099   7.653   2.017   7.043 -0.7106 -1.3870  0.1353
   69MOL   H20422100   7.636   1.797   7.007  1.3408  1.0631 -0.5896
   69MOL   H20522101   7.382   1.648   6.689  2.5540 -2.3403  0.5864
   69MOL   H20622102   7.347   1.863   6.609  1.7417  1.9187 -1.3062
   69MOL   H20722103   7.451   2.068   6.723  0.6573 -0.0390 -0.7792
   69MOL   H20822104   7.814   1.992   6.848  0.8207 -0.4751  2.5484
   69MOL   H20922105   7.737   2.123   6.772  0.8956  2.9766  1.7203
   69MOL   C21022106   7.865   2.183   6.939  0.0511  0.1432  0.1603
   69MOL   C21122107   7.915   2.129   7.074  0.0976 -0.0315  0.1082
   69MOL   C21222108   7.869   2.187   7.194 -0.1577 -0.3292 -0.2210
   69MOL   C21322109   7.881   2.121   7.318 -0.4197 -0.3663 -0.0984
   69MOL  Cl21422110   7.822   2.196   7.460 -0.2298  0.0137  0.2879
   69MOL   C21522111   7.952   1.998   7.326 -0.4435  1.2706 -0.1317
   69MOL   C21622112   7.982   1.931   7.207  0.3203  0.1169 -0.2242
   69MOL   C21722113   7.969   1.998   7.085  0.1236  0.8204  0.3882
   69MOL   C21822114   7.988   2.196   6.840 -0.5734 -0.1434  0.0497
   69MOL   H21922115   7.820   2.280   6.956  0.9659  0.3400  1.5668
   69MOL   H22022116   7.824   2.285   7.189  0.4993  0.0386  1.0371
   69MOL   H22122117   7.969   1.951   7.422 -0.8071  0.3984 -0.4893
   69MOL   H22222118   8.029   1.834   7.208  0.0521 -0.0289 -1.0546
   69MOL   H22322119   7.996   1.945   6.995 -1.1238 -0.0232  0.4913
   69MOL   H22422120   8.053   2.114   6.811 -0.8707  0.3004 -1.9476
   69MOL   H22522121   7.939   2.216   6.745  0.0192  1.5203  0.0692
   69MOL   C22622122   8.069   2.322   6.858 -0.0290 -0.0832  0.1539
   69MOL   C22722123   8.190   2.301   6.945  0.4747  0.3650 -0.5166
   69MOL   C22822124   8.185   2.371   7.065 -0.0509 -0.1706 -0.6337
   69MOL   C22922125   8.302   2.370   7.150 -0.4587 -0.1644 -0.2298
   69MOL  Cl23022126   8.316   2.472   7.286 -0.6133 -0.4119 -0.1205
   69MOL   C23122127   8.411   2.293   7.109 -0.6770 -0.0752 -0.6460
   69MOL   C23222128   8.411   2.221   6.992  0.8467 -0.4561 -0.3530
   69MOL   C23322129   8.302   2.230   6.905  0.6980  0.1648  0.5893
   69MOL   C23422130   8.110   2.394   6.730 -0.2753 -1.1772  0.6917
   69MOL   H23522131   8.006   2.397   6.907 -1.7366  0.6223 -2.9828
   69MOL   H23622132   8.106   2.437   7.095 -0.8014 -1.2021 -0.3128
   69MOL   H23722133   0.062   2.293   7.174 -1.0471 -0.2415 -0.1442
   69MOL   H23822134   0.060   2.159   6.967  1.7052 -0.1946  1.7359
   69MOL   H23922135   8.309   2.170   6.816  0.4263  0.6156  0.2625
   69MOL   H24022136   8.210   2.363   6.700 -0.4301  0.0893 -1.2627
   69MOL   H24122137   8.050   2.351   6.650  2.2065 -1.0743 -1.3157
   69MOL   C24222138   8.105   2.551   6.722 -0.1167  0.0502 -0.4311
   69MOL   C24322139   8.194   2.630   6.812  0.5712 -0.4022 -0.2805
   69MOL   C24422140   8.328   2.591   6.831 -0.1724  0.3109 -0.5350
   69MOL   C24522141   8.415   2.669   6.911  0.7178 -0.6533 -0.6239
   69MOL  Cl24622142   0.135   2.599   6.942  0.4430  0.2309 -0.2986
   69MOL   C24722143   8.375   2.794   6.967 -0.3383  0.2921  0.7932
   69MOL   C24822144   8.239   2.833   6.941  1.2775 -0.3553  0.4077
   69MOL   C24922145   8.150   2.752   6.868 -0.1203 -0.3624  0.0364
   69MOL   C25022146   8.119   2.605   6.577  0.0281  0.0596  0.3250
   69MOL   H25122147   8.007   2.569   6.766  0.3452  1.4973  0.0484
   69MOL   H25222148   8.353   2.494   6.789  0.6401  0.4302 -0.3363
   69MOL   H25322149   0.005   2.860   7.024  2.5960 -1.5630 -0.3105
   69MOL   H25422150   8.203   2.925   6.985  2.4990 -0.5193  1.8007
   69MOL   H25522151   8.051   2.792   6.852  0.7875  0.2985 -4.4752
   69MOL   H25622152   8.113   2.714   6.579 -1.4937 -0.0279  1.7953
   69MOL   H25722153   8.213   2.576   6.531 -0.4326  0.2852 -0.7977
   69MOL   C25822154   8.010   2.550   6.492  0.4540  0.3506 -0.2026
   69MOL   C25922155   7.859   2.579   6.542 -0.3043 -0.4001 -0.3082
   69MOL   C26022156   7.769   2.477   6.581  0.0372  0.4994  0.0356
   69MOL   C26122157   7.640   2.509   6.617  0.4694 -0.4033 -0.2582
   69MOL  Cl26222158   7.545   2.375   6.665 -0.0655  0.1094  0.1565
   69MOL   C26322159   7.594   2.642   6.620  0.0294 -0.4753 -0.0545
   69MOL   C26422160   7.681   2.750   6.583 -0.6187 -0.3496  0.3086
   69MOL   C26522161   7.817   2.717   6.547 -0.5422  0.1946 -0.3902
   69MOL   C26622162   8.030   2.581   6.344  0.0872  0.4515 -0.0768
   69MOL   H26722163   8.029   2.443   6.483 -1.3817  0.1884 -2.7897
   69MOL   H26822164   7.805   2.375   6.573  1.5917  0.9682  0.9093
   69MOL   H26922165   7.493   2.669   6.646 -0.2559 -3.0363  1.6360
   69MOL   H27022166   7.642   2.850   6.592 -2.1561 -0.7802 -1.4039
   69MOL   H27122167   7.893   2.787   6.518 -0.2870 -0.0868 -0.4063
   69MOL   H27222168   7.953   2.520   6.297 -0.1878 -0.5972  1.6971
   69MOL   H27322169   7.997   2.684   6.326  0.1880  1.0187  2.8238
   69MOL   C27422170   8.166   2.555   6.266  0.3381 -0.2943  0.0701
   69MOL   C27522171   8.191   2.407   6.241  0.0839 -0.1061 -0.0278
   69MOL   C27622172   8.098   2.337   6.164  0.5098  0.3987  0.0092
   69MOL   C27722173   8.090   2.194   6.156 -0.8158  0.0320  0.7500
   69MOL  Cl27822174   7.950   2.111   6.085 -0.0849  0.7174  0.3860
   69MOL   C27922175   8.195   2.124   6.224  0.1519  0.1103 -0.0641
   69MOL   C28022176   8.295   2.196   6.298  0.4102 -0.0316 -0.0054
   69MOL   C28122177   8.292   2.338   6.310  0.2395  0.3711  1.2787
   69MOL   C28222178   8.180   2.634   6.135  0.3231  0.1204 -0.0392
   69MOL   H28322179   8.251   2.598   6.319  0.2552  0.2762 -0.2559
   69MOL   H28422180   8.034   2.401   6.104 -1.5499 -1.8703 -0.2601
   69MOL   H28522181   8.196   2.017   6.235 -0.0209  0.0515 -0.6084
   69MOL   H28622182   8.374   2.143   6.349  1.6839 -0.6912 -2.5899
   69MOL   H28722183   8.369   2.392   6.365  0.6047 -0.9451  2.0701
   69MOL   H28822184   8.285   2.610   6.119  1.0063  2.6352  0.4750
   69MOL   H28922185   8.133   2.600   6.043  0.9739  2.0007 -1.0977
   69MOL   C29022186   8.159   2.785   6.133 -0.2315  0.3715  0.2274
   69MOL   C29122187   8.201   2.862   6.257  0.0383 -0.0235  0.4451
   69MOL   C29222188   8.101   2.928   6.331 -0.2125 -0.2347 -0.0431
   69MOL   C29322189   8.137   3.012   6.442  0.5262 -0.4717  0.3626
   69MOL  Cl29422190   8.024   3.064   6.558  0.0081  0.0341 -0.1115
   69MOL   C29522191   8.275   3.032   6.465  0.0386  0.1120  0.0081
   69MOL   C29622192   8.376   2.973   6.386 -0.0795  0.6167  0.6699
   69MOL   C29722193   8.338   2.887   6.281 -0.9641  0.4818  0.3532
   69MOL   C29822194   8.198   2.842   5.994  0.5742 -0.1734 -0.1012
   69MOL   H29922195   8.051   2.796   6.136 -0.1977  0.4864  1.3649
   69MOL   H30022196   7.997   2.917   6.306  0.4000  1.1451 -3.6051
   69MOL   H30122197   8.305   3.099   6.545 -0.3024  0.4634 -0.1589
   69MOL   H30222198   0.047   2.988   6.403 -0.1893  0.1518  1.8416
   69MOL   H30322199   8.408   2.832   6.220 -1.2722  0.2901  0.1753
   69MOL   H30422200   8.289   2.786   5.972 -0.2226 -1.4145 -0.2571
   69MOL   H30522201   8.136   2.808   5.911 -1.7515  3.4485  0.0481
   69MOL   C30622202   8.219   3.003   5.977  0.7010  0.5947  0.4469
   69MOL   C30722203   8.288   3.035   5.849  0.6264  0.4812 -0.2068
   69MOL   C30822204   8.387   3.138   5.848 -0.4883 -0.3358 -0.4678
   69MOL   C30922205   0.024   3.172   5.729 -0.0342 -0.1508  0.4101
   69MOL  Cl31022206   0.129   3.309   5.730 -0.3227 -0.1547  0.1611
   69MOL   C31122207   8.435   3.099   5.608 -0.1002 -0.4019  0.1556
   69MOL   C31222208   8.332   3.010   5.603  0.1189 -0.5852  0.5633
   69MOL   C31322209   8.252   2.973   5.723 -0.0224  0.0973  0.4383
   69MOL   C31422210   8.076   3.070   5.984 -0.3073  0.3028 -0.0978
   69MOL   H31522211   8.283   3.035   6.059  1.5171 -1.1435  0.5118
   69MOL   H31622212   8.411   3.192   5.938  0.4817  1.2813 -1.6565
   69MOL   H31722213   0.050   3.124   5.515 -0.5407 -0.0150  0.0232
   69MOL   H31822214   8.313   2.968   5.505 -0.9989 -0.3644  0.6717
   69MOL   H31922215   8.175   2.897   5.719  1.3163 -1.2375 -0.1088
   69MOL   H32022216   8.085   3.178   5.993  0.7895 -0.0121  3.1810
   69MOL   H32122217   8.007   3.057   5.900 -0.3560  0.9036 -0.1528
   69MOL   H32222218   8.019   3.047   6.073  0.1157 -1.0129 -0.1576
   70MOL     C122219   0.262   6.025   4.800  0.1992 -0.5429  0.1963
   70MOL     C222220   0.367   6.114   4.872 -0.1527 -0.0177  0.5600
   70MOL     C322221   0.467   6.181   4.801 -0.0229 -0.3077 -0.2418
   70MOL     C422222   0.556   6.262   4.874 -0.1490  0.1948  0.2489
   70MOL    Cl522223   0.666   6.362   4.788  0.0426 -0.1691 -0.0290
   70MOL     C622224   0.550   6.275   5.018  0.1307  0.8205  0.3805
   70MOL     C722225   0.449   6.199   5.081 -0.5259  0.5659 -0.6372
   70MOL     C822226   0.364   6.121   5.014  0.4294  0.1396  0.4748
   70MOL     C922227   0.273   5.878   4.837  0.1442 -0.5310  0.1318
   70MOL    H1022228   0.278   6.037   4.693 -0.9336 -0.9374 -0.0142
   70MOL    H1122229   0.479   6.176   4.694  1.3572 -2.9343  0.0178
   70MOL    H1222230   0.618   6.333   5.078  2.0862  0.6473 -1.5815
   70MOL    H1322231   0.444   6.195   5.189 -0.1795 -1.5065 -0.6680
   70MOL    H1422232   0.297   6.057   5.071 -0.0513 -0.5866 -0.8777
   70MOL    H1522233   0.368   5.847   4.792 -1.3934  0.8321 -4.3053
   70MOL    H1622234   0.274   5.868   4.946  0.8914 -0.4204  0.1393
   70MOL    H1722235   0.164   6.072   4.810  0.6548  0.4711 -0.0069
   70MOL    C1822236   0.161   5.792   4.782 -0.0900  0.0964 -0.2382
   70MOL    C1922237   0.191   5.645   4.781  0.4731  0.2380 -0.1693
   70MOL    C2022238   0.188   5.572   4.661 -0.1702  0.2152  0.0378
   70MOL    C2122239   0.221   5.435   4.656  0.3427 -0.4390  0.3403
   70MOL   Cl2222240   0.212   5.355   4.508  0.1222 -0.3119 -0.2203
   70MOL    C2322241   0.248   5.367   4.780  0.5252  0.1708 -0.6278
   70MOL    C2422242   0.252   5.434   4.905  0.1368 -0.2216  0.9808
   70MOL    C2522243   0.224   5.569   4.900  0.2411  0.2813  1.1782
   70MOL    C2622244   0.017   5.823   4.844 -0.6699  0.6582  0.5022
   70MOL    H2722245   0.158   5.823   4.677  1.5942 -1.2737 -0.7039
   70MOL    H2822246   0.146   5.622   4.575  0.3304 -0.6569 -0.7198
   70MOL    H2922247   0.258   5.260   4.785 -0.5765  0.0882 -0.0669
   70MOL    H3022248   0.259   5.383   5.000 -0.7230  3.4511  3.0887
   70MOL    H3122249   0.213   5.624   4.992 -2.4496  0.7025  0.6452
   70MOL    H3222250   0.011   5.795   4.949  0.3618  2.5625  1.0905
   70MOL    H3322251   8.429   5.929   4.844  0.4540  0.9092  0.5734
   70MOL    C3422252   8.342   5.755   4.763 -0.2600  0.2375  0.6452
   70MOL    C3522253   8.226   5.713   4.851 -0.2993 -0.3353  0.3783
   70MOL    C3622254   8.112   5.793   4.862  0.3622 -0.4136 -0.4534
   70MOL    C3722255   8.004   5.755   4.946  0.5994  0.2884 -0.2561
   70MOL   Cl3822256   7.863   5.853   4.968 -0.0899 -0.0344 -0.0385
   70MOL    C3922257   8.009   5.630   5.010  0.1737 -0.4009 -0.2802
   70MOL    C4022258   8.118   5.544   4.992 -0.6870  0.1563  0.2149
   70MOL    C4122259   8.228   5.588   4.913 -0.2621 -0.2017 -0.7595
   70MOL    C4222260   8.302   5.835   4.634 -0.0784 -0.8457 -0.1290
   70MOL    H4322261   8.385   5.662   4.726 -0.1826  0.9617 -1.1144
   70MOL    H4422262   8.113   5.894   4.825 -0.8889 -0.3981 -0.4772
   70MOL    H4522263   7.926   5.598   5.071 -1.0942  3.9250  0.4422
   70MOL    H4622264   8.122   5.455   5.052  4.9452  0.4317  0.5450
   70MOL    H4722265   8.310   5.519   4.900 -1.0760 -1.1627 -0.8318
   70MOL    H4822266   8.279   5.939   4.661 -1.4092 -1.1959  0.1136
   70MOL    H4922267   8.394   5.830   4.576 -0.3262  3.4314 -1.0464
   70MOL    C5022268   8.182   5.796   4.546 -0.1571 -0.0568  0.8390
   70MOL    C5122269   8.126   5.905   4.461  0.4303  0.1058  0.6738
   70MOL    C5222270   8.213   5.981   4.373  0.2759 -0.4086 -0.4828
   70MOL    C5322271   8.156   6.063   4.280  0.1825 -0.3710 -0.3210
   70MOL   Cl5422272   8.258   6.138   4.164 -0.3995  0.0376  0.0453
   70MOL    C5522273   8.019   6.079   4.270 -0.9154  0.4264  1.3333
   70MOL    C5622274   7.937   6.007   4.359  0.0886 -0.6729 -0.8458
   70MOL    C5722275   7.987   5.919   4.451 -0.7204  0.6709  0.3986
   70MOL    C5822276   8.223   5.670   4.457  0.4597 -0.7494 -0.0538
   70MOL    H5922277   8.102   5.758   4.609 -2.3183  0.1741 -1.6629
   70MOL    H6022278   8.320   5.971   4.383  0.2073  1.2369  2.2600
   70MOL    H6122279   7.971   6.147   4.202 -0.3092 -1.1700 -0.7245
   70MOL    H6222280   7.830   6.020   4.366  0.2991  0.1688  1.1371
   70MOL    H6322281   7.916   5.864   4.512 -0.2923 -1.9751 -1.4239
   70MOL    H6422282   8.186   5.679   4.354  3.3567  0.9599 -1.0125
   70MOL    H6522283   8.332   5.665   4.453  0.3980 -1.9584 -0.6352
   70MOL    C6622284   8.191   5.531   4.515 -0.1379  0.5540 -0.0951
   70MOL    C6722285   8.044   5.509   4.558 -0.1666  0.2403  0.2518
   70MOL    C6822286   8.012   5.438   4.673 -0.3956 -0.6805  0.2307
   70MOL    C6922287   7.880   5.414   4.715  0.7631  0.0821 -0.4702
   70MOL   Cl7022288   7.835   5.317   4.853  0.2334  0.0067 -0.3189
   70MOL    C7122289   7.775   5.475   4.640  0.0428  0.7110 -0.1091
   70MOL    C7222290   7.804   5.552   4.526  0.2539  0.3893  0.0969
   70MOL    C7322291   7.937   5.559   4.477  0.2411  0.1441  0.7758
   70MOL    C7422292   8.246   5.414   4.420 -0.5338  0.3348  0.5883
   70MOL    H7522293   8.252   5.521   4.604 -0.1048 -2.2321 -0.3761
   70MOL    H7622294   8.101   5.401   4.723  0.7959 -0.1440 -1.4361
   70MOL    H7722295   7.670   5.459   4.660  0.0641 -1.8417 -1.8268
   70MOL    H7822296   7.724   5.601   4.473  0.1599  0.2194  0.0808
   70MOL    H7922297   7.967   5.619   4.392  2.6153  0.6292  1.9026
   70MOL    H8022298   8.200   5.421   4.321  0.3838 -0.7966  0.0601
   70MOL    H8122299   8.350   5.436   4.396 -1.0939  2.0710 -0.3406
   70MOL    C8222300   8.228   5.271   4.466  0.6151  0.8325 -0.3360
   70MOL    C8322301   8.251   5.171   4.352  0.4284  0.3434 -0.2364
   70MOL    C8422302   8.379   5.148   4.295  0.0301  0.2673  0.4669
   70MOL    C8522303   8.388   5.068   4.178  0.3617 -0.3086 -0.6450
   70MOL   Cl8622304   0.115   5.040   4.113 -0.3059  0.2913 -0.1001
   70MOL    C8722305   8.272   5.010   4.118  1.1902  0.3306 -0.3387
   70MOL    C8822306   8.145   5.027   4.186  0.1317 -0.5419 -0.3312
   70MOL    C8922307   8.134   5.108   4.298 -0.1785  0.3855 -0.2125
   70MOL    C9022308   8.316   5.243   4.597 -0.5789  0.1653  0.1741
   70MOL    H9122309   8.123   5.263   4.495  0.2169  1.9655 -1.3791
   70MOL    H9222310   0.036   5.194   4.328 -0.1773  0.2014  1.1311
   70MOL    H9322311   8.280   4.956   4.024 -0.4004 -0.0915 -0.2531
   70MOL    H9422312   8.068   4.963   4.146 -1.1459  0.6468  0.1852
   70MOL    H9522313   8.037   5.128   4.342 -0.0400  0.1480  0.2068
   70MOL    H9622314   8.417   5.222   4.564 -0.9241 -0.1756 -0.6793
   70MOL    H9722315   8.313   5.323   4.671  2.3779 -0.6319  1.2330
   70MOL    C9822316   8.289   5.112   4.670 -0.2402 -0.9779  0.7850
   70MOL    C9922317   8.374   5.099   4.797 -0.6088  0.4576  0.0281
   70MOL   C10022318   8.362   5.180   4.912  0.0314 -0.3050 -0.0520
   70MOL   C10122319   0.009   5.179   5.023  0.3252  0.1608  0.0754
   70MOL  Cl10222320   8.407   5.268   5.166 -0.3651 -0.1046  0.2241
   70MOL   C10322321   0.109   5.084   5.032 -0.6057  0.6330 -0.8819
   70MOL   C10422322   0.127   4.996   4.917  0.2376  0.1322 -0.5835
   70MOL   C10522323   0.044   5.006   4.802  0.5075  0.4116  0.7231
   70MOL   C10622324   8.142   5.086   4.720  0.8610  0.0058  1.2527
   70MOL   H10722325   8.313   5.034   4.597  2.0295  1.1283 -0.8112
   70MOL   H10822326   8.288   5.259   4.915 -0.3204 -0.5934 -1.1144
   70MOL   H10922327   0.173   5.068   5.117 -3.1262 -0.3845  0.9142
   70MOL   H11022328   0.204   4.922   4.925  0.3309  0.4574  1.8271
   70MOL   H11122329   0.048   4.933   4.722 -0.8027  0.0539  0.9667
   70MOL   H11222330   8.118   5.156   4.801 -2.7433 -0.6536  0.8284
   70MOL   H11322331   8.068   5.103   4.642  1.9431 -1.8154 -0.1969
   70MOL   C11422332   8.121   4.947   4.773 -0.3617  0.8802 -0.4373
   70MOL   C11522333   7.990   4.934   4.850  0.1579 -0.0844 -0.0073
   70MOL   C11622334   7.990   4.881   4.983 -0.2153  0.2511 -0.1647
   70MOL   C11722335   7.868   4.864   5.052  0.5240  0.5338  0.2503
   70MOL  Cl11822336   7.863   4.799   5.212  0.2467  0.0333  0.0688
   70MOL   C11922337   7.747   4.904   4.989 -0.3468  0.4111  0.3821
   70MOL   C12022338   7.749   4.951   4.856  0.2174  0.0139  0.1457
   70MOL   C12122339   7.871   4.965   4.787 -0.3978  0.3857 -0.6592
   70MOL   C12222340   8.126   4.831   4.659 -0.6585  0.0486 -0.2795
   70MOL   H12322341   8.206   4.919   4.834 -0.5824  2.5491  0.6660
   70MOL   H12422342   8.081   4.851   5.034 -0.6890 -1.4427 -0.2950
   70MOL   H12522343   7.658   4.883   5.046 -0.0820  1.5517  1.2343
   70MOL   H12622344   7.657   4.981   4.807 -0.6197 -0.7398  1.2287
   70MOL   H12722345   7.872   5.006   4.688  2.1930  2.2893  0.0935
   70MOL   H12822346   8.076   4.868   4.570  0.4936  0.5893 -0.7176
   70MOL   H12922347   8.226   4.824   4.616 -0.0152  1.1405  0.9897
   70MOL   C13022348   8.076   4.685   4.689  0.3990  0.6421  0.1841
   70MOL   C13122349   8.064   4.596   4.566  0.3966 -0.0907 -0.4479
   70MOL   C13222350   8.171   4.585   4.478  0.2068  0.6025 -0.0303
   70MOL   C13322351   8.151   4.510   4.360 -0.4273  0.0153  0.4436
   70MOL  Cl13422352   8.286   4.516   4.252  0.4113  0.5511  0.3263
   70MOL   C13522353   8.032   4.447   4.330  0.7731 -0.7651  0.5987
   70MOL   C13622354   7.936   4.438   4.436 -0.5598 -1.2222 -0.9049
   70MOL   C13722355   7.945   4.518   4.556  0.1232 -0.3843 -0.2630
   70MOL   C13822356   8.173   4.615   4.785  0.2263  0.6248 -0.5814
   70MOL   H13922357   7.978   4.696   4.735 -0.6402 -2.5470 -1.1160
   70MOL   H14022358   8.267   4.633   4.490  1.2638 -1.4054 -0.2008
   70MOL   H14122359   8.014   4.390   4.240 -0.3942 -1.2679  1.1432
   70MOL   H14222360   7.839   4.395   4.416 -0.2241 -1.6306 -1.6513
   70MOL   H14322361   7.866   4.527   4.630  0.5286 -0.0820  0.1383
   70MOL   H14422362   8.265   4.587   4.735  0.8897 -0.9296  1.4488
   70MOL   H14522363   8.198   4.690   4.861 -0.6201  0.3413 -0.0102
   70MOL   C14622364   8.129   4.491   4.858 -0.1154  0.8003  0.3005
   70MOL   C14722365   8.242   4.432   4.940  0.5088 -0.5913 -0.3510
   70MOL   C14822366   8.301   4.315   4.903 -0.2399  0.0650  0.1542
   70MOL   C14922367   8.403   4.261   4.985  0.5305 -0.3224 -0.0383
   70MOL  Cl15022368   0.038   4.114   4.931 -0.2205 -0.3538  0.0996
   70MOL   C15122369   0.009   4.327   5.104  0.1795 -0.0627 -1.2759
   70MOL   C15222370   8.388   4.455   5.133  0.2169 -0.1805 -0.1796
   70MOL   C15322371   8.286   4.508   5.051  0.3968 -0.2435  0.5115
   70MOL   C15422372   8.003   4.512   4.955 -0.7217  0.0173 -0.3193
   70MOL   H15522373   8.104   4.412   4.787  0.6151 -1.1478  2.1837
   70MOL   H15622374   8.260   4.258   4.820 -3.2704 -1.9849  2.9030
   70MOL   H15722375   0.090   4.290   5.164 -2.6005 -1.3229  1.8405
   70MOL   H15822376   8.395   4.509   5.226 -1.9025  0.2491 -0.2589
   70MOL   H15922377   8.238   4.600   5.079  0.0609 -0.3922  0.4288
   70MOL   H16022378   8.022   4.576   5.041 -2.7080  0.6042 -0.2782
   70MOL   H16122379   7.927   4.569   4.900 -0.4903  1.0743  0.4405
   70MOL   C16222380   7.943   4.375   5.006  0.2279  0.0288  0.0183
   70MOL   C16322381   8.024   4.308   5.127 -0.0104 -0.6391  0.2235
   70MOL   C16422382   8.046   4.174   5.126  0.5132  0.2525  0.4371
   70MOL   C16522383   8.110   4.111   5.231  0.2306 -0.1268 -0.4746
   70MOL  Cl16622384   8.140   3.939   5.209 -0.0393 -0.1030  0.1117
   70MOL   C16722385   8.151   4.180   5.343  0.2878  0.4198 -0.2618
   70MOL   C16822386   8.130   4.315   5.353  0.0920  0.1222 -0.0837
   70MOL   C16922387   8.058   4.373   5.243 -0.4599  0.0041 -0.1070
   70MOL   C17022388   7.795   4.388   5.041  0.3101 -0.2138  0.2990
   70MOL   H17122389   7.951   4.311   4.918 -1.5658 -3.0317  2.0046
   70MOL   H17222390   8.013   4.104   5.050 -0.5501  2.7430 -1.4649
   70MOL   H17322391   8.201   4.138   5.428 -0.3078 -0.7585 -0.4859
   70MOL   H17422392   8.158   4.379   5.435 -0.8617  1.1421 -0.5498
   70MOL   H17522393   8.032   4.477   5.255 -1.7994 -0.1450 -1.6588
   70MOL   H17622394   7.758   4.313   5.111  1.6269 -0.0376  1.2050
   70MOL   H17722395   7.799   4.486   5.090  0.4971  0.3157 -0.7596
   70MOL   C17822396   7.698   4.415   4.923 -0.1401 -0.0122  0.3595
   70MOL   C17922397   7.670   4.291   4.849  0.7001 -0.7504  0.0746
   70MOL   C18022398   7.751   4.230   4.749 -0.3972 -0.4833 -0.6428
   70MOL   C18122399   7.716   4.113   4.685 -0.4296 -0.1889  0.1413
   70MOL  Cl18222400   7.807   4.057   4.555 -0.4897 -0.0036 -0.1939
   70MOL   C18322401   7.603   4.043   4.723 -0.7711  0.2176 -0.6113
   70MOL   C18422402   7.520   4.098   4.823 -0.4149  0.3332  0.6705
   70MOL   C18522403   7.550   4.220   4.882  0.3562 -0.5226  0.9157
   70MOL   C18622404   7.567   4.498   4.952  0.1704 -0.5976  0.5438
   70MOL   H18722405   7.755   4.480   4.857 -1.5243  0.2766 -0.5846
   70MOL   H18822406   7.840   4.279   4.713 -0.1949  0.0054  0.5129
   70MOL   H18922407   7.571   3.957   4.667 -0.6057  0.6554 -1.3860
   70MOL   H19022408   7.438   4.036   4.858  1.3055 -2.2792  0.2377
   70MOL   H19122409   7.488   4.252   4.965  0.5417  2.0150  0.1266
   70MOL   H19222410   7.511   4.449   5.032  1.5517 -1.6472  0.8936
   70MOL   H19322411   7.603   4.582   5.013 -0.0736 -0.6873  0.8165
   70MOL   C19422412   7.480   4.537   4.828  0.4840 -0.0112  0.1175
   70MOL   C19522413   7.339   4.576   4.867 -0.2890 -0.1286  0.0504
   70MOL   C19622414   7.310   4.702   4.927 -0.8519  0.2206 -0.2973
   70MOL   C19722415   7.178   4.737   4.974 -1.0286  0.1525  0.6647
   70MOL  Cl19822416   7.133   4.881   5.055  0.1453  0.0645 -0.1494
   70MOL   C19922417   7.076   4.642   4.943  0.4502  0.5879 -0.3334
   70MOL   C20022418   7.101   4.524   4.876  0.0587 -0.1245  0.4233
   70MOL   C20122419   7.234   4.493   4.834  0.9452 -0.3497 -0.2263
   70MOL   C20222420   7.554   4.641   4.746 -0.4756  0.1246  0.6920
   70MOL   H20322421   7.470   4.443   4.774  1.9652 -1.2123  1.8904
   70MOL   H20422422   7.395   4.766   4.946 -0.0378 -0.5089 -1.4481
   70MOL   H20522423   6.972   4.660   4.967  0.8356  1.1636  0.9381
   70MOL   H20622424   7.025   4.461   4.833 -0.4684  0.4720  0.4783
   70MOL   H20722425   7.253   4.402   4.779 -0.0663  0.4141 -1.8898
   70MOL   H20822426   7.595   4.712   4.817  1.2133  0.9350 -1.0641
   70MOL   H20922427   7.650   4.605   4.710 -1.3901 -0.2141 -1.4731
   70MOL   C21022428   7.469   4.724   4.646  0.7782 -0.2544  0.7733
   70MOL   C21122429   7.558   4.832   4.577  0.5450 -0.0038 -0.5457
   70MOL   C21222430   7.669   4.795   4.510 -0.1741 -0.5388  0.3015
   70MOL   C21322431   7.750   4.887   4.435  0.7962  0.1949 -0.3723
   70MOL  Cl21422432   7.877   4.834   4.338  0.2547 -0.4763  0.0547
   70MOL   C21522433   7.719   5.022   4.427  0.9241 -0.0355  0.3454
   70MOL   C21622434   7.601   5.056   4.499  0.2687 -0.1748  0.7409
   70MOL   C21722435   7.511   4.963   4.554  0.2555 -0.1852 -0.5382
   70MOL   C21822436   7.394   4.641   4.544 -0.4159 -0.0096 -0.9716
   70MOL   H21922437   7.392   4.774   4.705  1.8423  0.9539  1.1729
   70MOL   H22022438   7.707   4.694   4.512 -1.5660 -1.0726 -0.0127
   70MOL   H22122439   7.784   5.094   4.381  0.2867 -0.6087 -1.5060
   70MOL   H22222440   7.571   5.160   4.489  2.5650  0.2379 -2.3278
   70MOL   H22322441   7.417   4.992   4.599  1.3402  0.1390  1.5947
   70MOL   H22422442   7.473   4.621   4.472 -0.1967  0.5147 -0.8829
   70MOL   H22522443   7.358   4.543   4.574  0.4887 -0.6558 -1.9722
   70MOL   C22622444   7.282   4.710   4.468  0.5271  0.3715  0.6513
   70MOL   C22722445   7.275   4.653   4.328  0.8116  0.2777 -0.0440
   70MOL   C22822446   7.308   4.735   4.218 -0.5177 -0.3152  0.6562
   70MOL   C22922447   7.275   4.689   4.091  0.0624 -0.3969 -0.2434
   70MOL  Cl23022448   7.304   4.787   3.952  0.1426  0.2689  0.2419
   70MOL   C23122449   7.228   4.564   4.059  0.4040  0.4955  0.3545
   70MOL   C23222450   7.223   4.474   4.168 -0.3684 -0.6400 -0.1766
   70MOL   C23322451   7.237   4.519   4.303  0.3242 -0.1348  0.3570
   70MOL   C23422452   7.149   4.719   4.548  0.6632  0.1896  0.2662
   70MOL   H23522453   7.315   4.813   4.450  0.8087  0.4501  1.5957
   70MOL   H23622454   7.344   4.837   4.230 -0.9258  0.0081 -0.8023
   70MOL   H23722455   7.218   4.526   3.958  0.2688 -0.8874  0.8783
   70MOL   H23822456   7.205   4.372   4.137 -3.0623 -0.0670 -0.6529
   70MOL   H23922457   7.212   4.455   4.386  0.4018 -2.4874 -1.3786
   70MOL   H24022458   7.122   4.616   4.574  0.8458 -0.1480 -0.8670
   70MOL   H24122459   7.172   4.760   4.647 -0.5758  0.8107  0.2974
   70MOL   C24222460   7.033   4.787   4.480  0.0100 -0.1189 -0.1216
   70MOL   C24322461   6.894   4.743   4.537  0.0375  0.0731  0.7452
   70MOL   C24422462   6.801   4.681   4.451  0.2669 -0.7360 -0.1299
   70MOL   C24522463   6.674   4.646   4.497 -0.1955  0.1272 -0.9565
   70MOL  Cl24622464   6.572   4.569   4.388  0.1264 -0.2589  0.0494
   70MOL   C24722465   6.638   4.671   4.634  0.0754 -0.0552  0.3359
   70MOL   C24822466   6.737   4.721   4.721 -0.0153 -0.3365 -0.9685
   70MOL   C24922467   6.867   4.756   4.674  0.6213 -0.6234  0.0104
   70MOL   C25022468   7.026   4.943   4.471 -0.1825 -0.4215 -0.4199
   70MOL   H25122469   7.034   4.742   4.381 -1.0419 -0.6396  0.0940
   70MOL   H25222470   6.827   4.667   4.348 -0.9698 -1.0048 -0.4215
   70MOL   H25322471   6.537   4.643   4.661 -0.2181 -0.1600 -0.8282
   70MOL   H25422472   6.714   4.761   4.818 -1.4137 -2.0926 -0.5644
   70MOL   H25522473   6.939   4.798   4.743 -0.8626  0.1699  1.0978
   70MOL   H25622474   6.945   4.982   4.532  0.3809  0.9215 -0.5095
   70MOL   H25722475   7.118   4.982   4.515  0.8271 -2.0314 -1.0391
   70MOL   C25822476   7.019   4.996   4.330  1.0735 -0.4723  0.5168
   70MOL   C25922477   6.905   4.941   4.248 -0.5584 -0.1555  0.0860
   70MOL   C26022478   6.924   4.837   4.162 -0.5501 -1.3763 -0.3473
   70MOL   C26122479   6.817   4.779   4.097  0.5657  0.7915  0.3566
   70MOL  Cl26222480   6.846   4.637   4.015 -0.1764  0.4368  0.1208
   70MOL   C26322481   6.689   4.837   4.102  0.5770  0.6841  0.1095
   70MOL   C26422482   6.666   4.947   4.188  0.1539 -0.4271 -0.5348
   70MOL   C26522483   6.774   4.997   4.259 -0.5611  0.2203 -0.1238
   70MOL   C26622484   7.025   5.152   4.319  0.8429 -0.0639 -0.2506
   70MOL   H26722485   7.102   4.957   4.270  0.4563  0.4676 -0.9690
   70MOL   H26822486   7.022   4.793   4.160 -1.1134 -2.6678  0.3189
   70MOL   H26922487   6.612   4.785   4.047  0.4948  1.3413 -0.3942
   70MOL   H27022488   6.571   4.994   4.207  2.1374  3.0617  1.2471
   70MOL   H27122489   6.761   5.084   4.321 -2.6374 -1.0714  1.2982
   70MOL   H27222490   6.977   5.171   4.223  0.2159 -2.2257 -0.3852
   70MOL   H27322491   6.951   5.201   4.383  0.1787 -0.1881 -0.9101
   70MOL   C27422492   7.172   5.204   4.323  0.5021 -0.3784 -0.4793
   70MOL   C27522493   7.254   5.182   4.195 -0.8262  0.1908 -0.7340
   70MOL   C27622494   7.382   5.122   4.193  0.2506 -0.6191 -0.3404
   70MOL   C27722495   7.447   5.088   4.080  0.1921  0.1202 -0.1329
   70MOL  Cl27822496   7.593   4.998   4.088  0.1421  0.1234  0.5210
   70MOL   C27922497   7.387   5.119   3.954 -0.0972  0.3852  0.7612
   70MOL   C28022498   7.261   5.179   3.948 -0.1667 -0.7187  0.6177
   70MOL   C28122499   7.193   5.212   4.068  0.0776 -0.6059 -0.3900
   70MOL   C28222500   7.179   5.359   4.340  0.0302  0.3795 -0.1168
   70MOL   H28322501   7.213   5.145   4.405 -0.9271 -0.1596  0.4203
   70MOL   H28422502   7.425   5.099   4.289  0.3479 -0.5427 -0.3668
   70MOL   H28522503   7.437   5.099   3.860 -0.2279  1.1040  0.5411
   70MOL   H28622504   7.208   5.197   3.856  2.3479  0.5970 -0.6015
   70MOL   H28722505   7.094   5.256   4.060  0.5381  0.4246 -0.3986
   70MOL   H28822506   7.283   5.387   4.325  0.0528  0.5618  0.3672
   70MOL   H28922507   7.118   5.402   4.261 -0.5420 -1.1004 -0.5122
   70MOL   C29022508   7.146   5.408   4.484 -0.4000  0.1439 -0.1756
   70MOL   C29122509   7.195   5.316   4.594  0.3216 -1.0677  0.1918
   70MOL   C29222510   7.333   5.313   4.636 -0.1401  0.0649 -0.5215
   70MOL   C29322511   7.368   5.236   4.746  0.0203 -0.2498  0.3271
   70MOL  Cl29422512   7.527   5.221   4.791  0.1630 -0.2859 -0.4696
   70MOL   C29522513   7.275   5.162   4.819  0.0868 -0.2999  0.2849
   70MOL   C29622514   7.139   5.160   4.771 -0.4781  0.1989 -0.0089
   70MOL   C29722515   7.099   5.235   4.661 -0.7308 -0.4658 -0.2987
   70MOL   C29822516   7.177   5.555   4.510  0.7882  0.4827  0.5193
   70MOL   H29922517   7.037   5.415   4.492 -0.6133  0.6963 -3.0184
   70MOL   H30022518   7.412   5.365   4.584  0.6864 -0.3061  0.3562
   70MOL   H30122519   7.294   5.096   4.902  1.4407 -0.4930 -0.1684
   70MOL   H30222520   7.065   5.106   4.828 -1.0208 -0.7698 -1.6153
   70MOL   H30322521   6.994   5.240   4.634 -0.8601  0.5173  0.3767
   70MOL   H30422522   7.161   5.572   4.616 -0.2305  0.6524  0.3493
   70MOL   H30522523   7.281   5.578   4.489 -0.3024  2.9337 -2.6106
   70MOL   C30622524   7.089   5.665   4.443  0.7761 -0.2882 -0.0533
   70MOL   C30722525   6.941   5.666   4.472 -0.5118  0.1793 -0.3269
   70MOL   C30822526   6.891   5.615   4.597 -0.7474 -0.3126 -0.3345
   70MOL   C30922527   6.749   5.608   4.617 -0.4795 -0.4357 -0.0757
   70MOL  Cl31022528   6.693   5.544   4.767 -0.1590  0.1815 -0.1547
   70MOL   C31122529   6.655   5.669   4.529  0.4932  0.9750  0.6320
   70MOL   C31222530   6.705   5.708   4.404 -0.9331 -0.0553 -0.3719
   70MOL   C31322531   6.846   5.704   4.378 -0.1287 -0.0415 -0.3634
   70MOL   C31422532   7.145   5.802   4.480 -0.3535  0.5762  0.2060
   70MOL   H31522533   7.113   5.650   4.338  1.6289 -0.3432  0.1463
   70MOL   H31622534   6.957   5.567   4.667 -0.8163 -3.1215 -2.1016
   70MOL   H31722535   6.551   5.677   4.558  1.0113  1.1030  2.5652
   70MOL   H31822536   6.630   5.737   4.330 -0.2334 -1.4045 -1.6306
   70MOL   H31922537   6.880   5.740   4.281 -1.3684  0.7141 -0.5341
   70MOL   H32022538   7.110   5.829   4.579 -0.3964  0.6971  0.1580
   70MOL   H32122539   7.253   5.807   4.470 -0.4714 -1.3560 -2.4693
   70MOL   H32222540   7.104   5.867   4.402 -1.2922 -0.2237  0.0228
   71MOL     C122541   4.196   1.904   1.594  0.2042 -0.6572  0.2125
   71MOL     C222542   4.253   2.045   1.613 -1.1774 -0.3330  0.1950
   71MOL     C322543   4.392   2.070   1.626 -0.0097 -0.6474 -0.2152
   71MOL     C422544   4.436   2.201   1.640  0.4879 -0.0212  0.0603
   71MOL    Cl522545   4.604   2.230   1.661 -0.1410  0.0227  0.4732
   71MOL     C622546   4.343   2.306   1.640  0.3051 -0.4186 -0.1618
   71MOL     C722547   4.207   2.279   1.627  0.3526  0.4459 -0.1663
   71MOL     C822548   4.163   2.148   1.603  0.3323 -0.1825  0.2237
   71MOL     C922549   4.208   1.855   1.448  0.1375 -0.2160  0.3917
   71MOL    H1022550   4.089   1.903   1.610  0.0844 -1.5356 -0.6650
   71MOL    H1122551   4.463   1.988   1.622  0.7697  0.0792 -1.9499
   71MOL    H1222552   4.379   2.407   1.631  1.8867 -1.0427 -1.1432
   71MOL    H1322553   4.132   2.357   1.624 -2.3176 -2.0756 -2.3400
   71MOL    H1422554   4.061   2.122   1.579  0.4866 -1.3440  0.7861
   71MOL    H1522555   4.129   1.899   1.387  1.2101 -1.2987 -1.8292
   71MOL    H1622556   4.299   1.893   1.401 -0.7127  0.5713 -0.6523
   71MOL    H1722557   4.236   1.832   1.665 -0.9646 -0.0908  1.4557
   71MOL    C1822558   4.208   1.697   1.451  0.0943 -0.0315  0.6503
   71MOL    C1922559   4.069   1.642   1.498 -0.5249  0.6154  0.1024
   71MOL    C2022560   4.058   1.557   1.613 -0.3060 -0.0953 -0.0150
   71MOL    C2122561   3.932   1.513   1.660  1.4036  0.5726  0.0800
   71MOL   Cl2222562   3.913   1.438   1.815  0.2258  0.0875 -0.2162
   71MOL    C2322563   3.812   1.547   1.586  0.6794  0.6402  0.4931
   71MOL    C2422564   3.829   1.631   1.471  0.2550 -0.1983  0.1277
   71MOL    C2522565   3.953   1.682   1.427 -1.3744 -0.6293 -0.5370
   71MOL    C2622566   4.256   1.642   1.323  1.2081 -0.4694  0.5894
   71MOL    H2722567   4.277   1.661   1.528 -0.0829 -0.8604  0.4288
   71MOL    H2822568   4.147   1.529   1.667 -0.9340 -2.6472 -0.2504
   71MOL    H2922569   3.716   1.511   1.617  2.0535 -1.6870  2.2075
   71MOL    H3022570   3.739   1.654   1.416  0.8296 -0.4934 -0.9719
   71MOL    H3122571   3.977   1.745   1.343  1.4831  0.2236  0.8752
   71MOL    H3222572   4.232   1.536   1.324  4.3535 -1.2474 -0.6772
   71MOL    H3322573   4.196   1.678   1.239 -0.0849  0.2755  1.8117
   71MOL    C3422574   4.404   1.666   1.286 -0.1704  0.3306  0.2572
   71MOL    C3522575   4.498   1.625   1.394  0.8311 -0.0729  0.3148
   71MOL    C3622576   4.545   1.723   1.480  0.5658  0.2515 -0.7962
   71MOL    C3722577   4.643   1.703   1.583  0.0592 -0.1856  0.2387
   71MOL   Cl3822578   4.672   1.824   1.707  0.0254  0.8494 -0.4937
   71MOL    C3922579   4.702   1.579   1.590  0.1709  0.2373 -0.2377
   71MOL    C4022580   4.665   1.483   1.498  0.1574  0.8829 -0.0732
   71MOL    C4122581   4.564   1.503   1.403  0.2643 -1.0732 -0.4204
   71MOL    C4222582   4.435   1.601   1.153  0.3679 -0.3329  0.6792
   71MOL    H4322583   4.421   1.771   1.262  1.8626  0.0947  0.5528
   71MOL    H4422584   4.505   1.823   1.472 -2.1681 -0.6774  0.6438
   71MOL    H4522585   4.767   1.550   1.671  0.1827 -1.1469 -0.7410
   71MOL    H4622586   4.717   1.389   1.500 -0.5732  0.4944  2.0250
   71MOL    H4722587   4.544   1.422   1.334  0.6516 -0.1427 -1.6273
   71MOL    H4822588   4.422   1.495   1.175 -2.5152  0.3037  2.2893
   71MOL    H4922589   4.360   1.614   1.074  2.3022  2.2004 -0.8172
   71MOL    C5022590   4.573   1.635   1.094  0.4626 -0.0723  0.2544
   71MOL    C5122591   4.636   1.520   1.027 -0.6772  0.4126  0.1348
   71MOL    C5222592   4.768   1.490   1.060  0.3285 -0.4072  0.0933
   71MOL    C5322593   4.836   1.388   0.993 -0.5893  0.0968  0.2275
   71MOL   Cl5422594   5.006   1.364   1.011  0.2611  0.1562 -0.4934
   71MOL    C5522595   4.764   1.301   0.909  0.1163 -0.7336  0.1858
   71MOL    C5622596   4.629   1.330   0.873 -0.0514  0.1473  0.4705
   71MOL    C5722597   4.566   1.446   0.928  0.1373  0.3426  0.8987
   71MOL    C5822598   4.570   1.749   0.993  0.3761  0.3280  0.6175
   71MOL    H5922599   4.629   1.670   1.181 -0.3073 -0.1358  0.7695
   71MOL    H6022600   4.818   1.549   1.136  0.9382 -0.1935 -0.4715
   71MOL    H6122601   4.815   1.213   0.872  0.6562 -0.5215  0.4116
   71MOL    H6222602   4.567   1.267   0.809  1.0933 -1.1898  0.6597
   71MOL    H6322603   4.469   1.481   0.896  0.9470  0.5652 -1.3925
   71MOL    H6422604   4.510   1.723   0.905  1.2091  2.2532 -0.5355
   71MOL    H6522605   4.495   1.815   1.036 -0.2604 -0.3524  0.5677
   71MOL    C6622606   4.699   1.829   0.962  0.5923 -0.1292  0.4141
   71MOL    C6722607   4.782   1.756   0.858  0.4056  0.2702 -0.5249
   71MOL    C6822608   4.728   1.714   0.737 -0.1995 -0.2109 -0.0457
   71MOL    C6922609   4.810   1.655   0.639  0.3653  0.0785 -0.5951
   71MOL   Cl7022610   4.742   1.596   0.493 -0.3470  0.4075  0.1052
   71MOL    C7122611   4.944   1.618   0.672 -0.1930  0.1867 -0.4228
   71MOL    C7222612   4.999   1.678   0.787 -0.3450 -0.7695 -0.6953
   71MOL    C7322613   4.920   1.739   0.889  0.8127 -0.5331 -0.3880
   71MOL    C7422614   4.663   1.972   0.919  0.3995  0.0408  0.7911
   71MOL    H7522615   4.755   1.839   1.055  1.5038  1.4075 -0.2797
   71MOL    H7622616   4.624   1.727   0.711 -0.2033  0.6397  0.3712
   71MOL    H7722617   5.009   1.562   0.606 -1.1712  0.5530 -1.7388
   71MOL    H7822618   5.101   1.657   0.814 -0.6943 -1.5217  0.0437
   71MOL    H7922619   4.959   1.775   0.982  1.4190  0.8995 -1.1823
   71MOL    H8022620   4.750   2.017   0.872 -0.6628  1.9999  0.6223
   71MOL    H8122621   4.593   1.978   0.836  2.2471  0.4848 -0.7697
   71MOL    C8222622   4.612   2.068   1.034 -0.4086 -0.1773 -0.0390
   71MOL    C8322623   4.702   2.067   1.159  0.3943 -0.1773  0.1269
   71MOL    C8422624   4.841   2.096   1.156 -0.7984 -0.8012 -0.2215
   71MOL    C8522625   4.915   2.087   1.281 -0.5059  0.1236 -0.1069
   71MOL   Cl8622626   5.081   2.126   1.286 -0.2163  0.0007  0.2250
   71MOL    C8722627   4.845   2.052   1.397 -1.0757 -0.0088 -0.8946
   71MOL    C8822628   4.708   2.036   1.400  0.4695 -0.5365 -0.0289
   71MOL    C8922629   4.636   2.040   1.282  0.0670 -0.2862 -0.5094
   71MOL    C9022630   4.610   2.208   0.979 -0.2221  0.2163  0.1370
   71MOL    H9122631   4.513   2.037   1.069 -1.1896  0.0114 -1.9866
   71MOL    H9222632   4.893   2.118   1.064  1.6975  1.4142  1.6296
   71MOL    H9322633   4.896   2.033   1.491 -0.2119  1.1911 -1.1150
   71MOL    H9422634   4.663   2.012   1.495 -1.8563 -2.5724 -1.6097
   71MOL    H9522635   4.530   2.019   1.288 -0.0995  1.0316  1.9511
   71MOL    H9622636   4.587   2.278   1.059 -2.0866  0.5411 -0.6758
   71MOL    H9722637   4.713   2.233   0.952  0.3806 -1.5953  0.6666
   71MOL    C9822638   4.511   2.235   0.866  0.4734  0.5346  0.1951
   71MOL    C9922639   4.367   2.184   0.902  0.1589  0.2721 -0.6090
   71MOL   C10022640   4.310   2.205   1.028 -0.3086 -0.1546 -0.7228
   71MOL   C10122641   4.178   2.172   1.059 -0.1052  0.5251 -0.0448
   71MOL  Cl10222642   4.097   2.214   1.201  0.4641 -0.1021  0.0820
   71MOL   C10322643   4.100   2.107   0.960  0.4549 -0.5699 -0.3457
   71MOL   C10422644   4.161   2.084   0.833 -0.8320  0.6162  0.3194
   71MOL   C10522645   4.287   2.131   0.804 -0.1893  0.0761  0.2810
   71MOL   C10622646   4.503   2.378   0.828  0.4019 -0.2254  0.0836
   71MOL   H10722647   4.551   2.183   0.779 -0.0627 -2.1582  1.4916
   71MOL   H10822648   4.376   2.243   1.105 -1.5694 -0.9584  0.7733
   71MOL   H10922649   4.000   2.069   0.978  0.9850 -2.0611 -0.4249
   71MOL   H11022650   4.100   2.044   0.753  0.0708  0.5711 -0.3541
   71MOL   H11122651   4.335   2.115   0.709 -1.2115  0.2842 -0.2742
   71MOL   H11222652   4.431   2.380   0.746 -0.3049 -0.0291  0.6981
   71MOL   H11322653   4.445   2.424   0.908  0.7641  3.4125 -1.6903
   71MOL   C11422654   4.638   2.454   0.792 -0.1368  0.6601  1.2172
   71MOL   C11522655   4.690   2.398   0.662 -0.9136  0.9580 -0.1719
   71MOL   C11622656   4.636   2.423   0.535  0.5450  0.5027  0.2823
   71MOL   C11722657   4.687   2.364   0.419 -1.0716 -0.9699  0.7069
   71MOL  Cl11822658   4.616   2.386   0.261  0.0263  0.1233  0.3224
   71MOL   C11922659   4.796   2.277   0.423 -0.7549 -0.3040 -0.4660
   71MOL   C12022660   4.852   2.245   0.548 -0.2605  0.2793 -0.3181
   71MOL   C12122661   4.800   2.306   0.671  0.2668  0.0148  0.5694
   71MOL   C12222662   4.627   2.605   0.802 -0.0023  0.2220  0.1262
   71MOL   H12322663   4.706   2.416   0.868  0.0485 -1.0698  0.2302
   71MOL   H12422664   4.549   2.486   0.525 -1.8363 -2.4017  1.9013
   71MOL   H12522665   4.833   2.228   0.334  0.0000  1.2679 -1.0298
   71MOL   H12622666   4.920   2.161   0.550 -0.9127 -0.2373  0.4189
   71MOL   H12722667   4.848   2.288   0.767 -0.2414 -3.1193  0.2922
   71MOL   H12822668   4.580   2.640   0.711  0.9643  0.3980 -0.3077
   71MOL   H12922669   4.561   2.622   0.887  2.2841  0.1583  1.9907
   71MOL   C13022670   4.752   2.696   0.815 -0.3913  0.0775 -0.1478
   71MOL   C13122671   4.838   2.696   0.684 -0.3308 -0.8315  0.4225
   71MOL   C13222672   4.792   2.758   0.562 -0.3056 -0.2400 -0.1208
   71MOL   C13322673   4.881   2.756   0.448  0.3936  0.1951 -0.0695
   71MOL  Cl13422674   4.824   2.813   0.293  0.1208  0.1205 -0.0545
   71MOL   C13522675   5.010   2.702   0.451  0.3105  0.5046  0.4340
   71MOL   C13622676   5.049   2.655   0.576  0.4932 -0.0424  0.3093
   71MOL   C13722677   4.968   2.643   0.687  0.3006 -0.7329 -0.3667
   71MOL   C13822678   4.717   2.835   0.866 -0.2926  0.2080 -0.6841
   71MOL   H13922679   4.807   2.646   0.894 -1.8008  0.4661  1.1029
   71MOL   H14022680   4.693   2.801   0.549 -1.0759 -2.3185 -1.4673
   71MOL   H14122681   5.071   2.701   0.362 -1.6992  1.4957 -0.9782
   71MOL   H14222682   5.145   2.607   0.591  1.1067  0.6333 -1.3262
   71MOL   H14322683   4.994   2.593   0.779 -1.2985 -1.9931 -0.5636
   71MOL   H14422684   4.644   2.882   0.800 -0.6230 -0.8061 -1.0393
   71MOL   H14522685   4.679   2.830   0.968  3.5200 -0.3177  0.7679
   71MOL   C14622686   4.836   2.934   0.870 -0.0822 -0.1978  0.3647
   71MOL   C14722687   4.797   3.072   0.930 -0.2714 -1.2713  0.1681
   71MOL   C14822688   4.753   3.096   1.060  0.0144  0.4773 -0.1992
   71MOL   C14922689   4.730   3.229   1.104  0.1835  0.5156  0.2151
   71MOL  Cl15022690   4.648   3.246   1.254  0.0975  0.3707  0.1519
   71MOL   C15122691   4.750   3.342   1.018  0.1216  0.5659  0.2407
   71MOL   C15222692   4.791   3.318   0.887  0.2086  0.5984  0.6551
   71MOL   C15322693   4.805   3.188   0.844  0.3017  0.7316  0.4583
   71MOL   C15422694   4.960   2.880   0.946 -0.3439 -0.0023  0.1117
   71MOL   H15522695   4.867   2.946   0.767 -0.8213 -1.9690 -0.0854
   71MOL   H15622696   4.734   3.010   1.121 -0.6430  0.6492 -0.1551
   71MOL   H15722697   4.736   3.442   1.056  0.1897  0.7830 -0.2991
   71MOL   H15822698   4.797   3.402   0.819  0.5020  2.1577  2.5619
   71MOL   H15922699   4.827   3.171   0.739  0.0682  1.5933  0.2650
   71MOL   H16022700   4.943   2.874   1.054  0.9111  0.0187  0.3268
   71MOL   H16122701   4.985   2.780   0.908  1.8514  0.7608 -0.5417
   71MOL   C16222702   5.087   2.964   0.923  0.0792 -0.2952  0.4370
   71MOL   C16322703   5.194   2.949   1.031 -0.0179  0.8013 -0.2460
   71MOL   C16422704   5.244   3.063   1.106  1.2608  0.7976 -0.0993
   71MOL   C16522705   5.350   3.049   1.191 -0.5359 -0.1797  0.0787
   71MOL  Cl16622706   5.408   3.193   1.263  0.6567  0.4201 -0.3767
   71MOL   C16722707   5.402   2.924   1.220 -0.2771  1.0645  0.0811
   71MOL   C16822708   5.340   2.808   1.166  0.2195 -0.0966 -0.6339
   71MOL   C16922709   5.249   2.823   1.059 -0.2167 -0.3482 -0.4051
   71MOL   C17022710   5.144   2.936   0.786 -0.1838  0.3634  0.2766
   71MOL   H17122711   5.047   3.065   0.920 -3.8247 -1.7792 -0.4982
   71MOL   H17222712   5.191   3.152   1.078 -0.9837 -0.0010  1.4619
   71MOL   H17322713   5.481   2.901   1.290 -1.3418  2.3515  1.7641
   71MOL   H17422714   5.383   2.711   1.185  2.1517  0.8438 -0.1183
   71MOL   H17522715   5.210   2.740   1.002  1.6726 -1.0314 -0.7262
   71MOL   H17622716   5.186   2.835   0.786 -0.8930  0.0522 -2.1031
   71MOL   H17722717   5.066   2.927   0.711  1.2827  0.0137 -1.2527
   71MOL   C17822718   5.256   3.030   0.720  0.0269 -0.0947  0.1523
   71MOL   C17922719   5.276   3.000   0.578  0.4509 -0.0526  1.1193
   71MOL   C18022720   5.176   3.017   0.481 -0.1139 -0.2528  0.5227
   71MOL   C18122721   5.211   3.006   0.344 -0.3871 -0.1301 -0.1640
   71MOL  Cl18222722   5.089   3.036   0.225  0.2380  0.0307 -0.1696
   71MOL   C18322723   5.338   2.964   0.300 -0.4453  0.5220 -0.2730
   71MOL   C18422724   5.429   2.922   0.399  0.6912 -0.5201  0.4137
   71MOL   C18522725   5.400   2.948   0.537 -0.1138 -1.1298 -0.2715
   71MOL   C18622726   5.228   3.182   0.736 -0.7541  0.3360  1.4696
   71MOL   H18722727   5.344   3.010   0.781  0.4091 -1.0437 -0.6857
   71MOL   H18822728   5.081   3.062   0.507 -1.1463 -2.4932  0.6853
   71MOL   H18922729   5.364   2.944   0.197 -1.6620  0.3706 -0.5629
   71MOL   H19022730   5.526   2.876   0.379  0.0508 -1.7509  0.0519
   71MOL   H19122731   5.485   2.925   0.600  1.7741  2.4005 -1.3466
   71MOL   H19222732   5.150   3.223   0.671 -1.5493  0.4051  2.4616
   71MOL   H19322733   5.204   3.210   0.838  0.8330 -0.3333  2.0552
   71MOL   C19422734   5.353   3.275   0.719 -0.1230 -0.2785 -0.2174
   71MOL   C19522735   5.308   3.416   0.705 -0.6140 -0.1620 -0.2199
   71MOL   C19622736   5.395   3.505   0.648 -0.7693 -0.3418  0.1691
   71MOL   C19722737   5.382   3.650   0.654  0.1796  0.1877  0.0151
   71MOL  Cl19822738   5.472   3.751   0.548  0.0128 -0.0580 -0.5891
   71MOL   C19922739   5.268   3.699   0.726 -0.1596 -0.2530 -0.2837
   71MOL   C20022740   5.176   3.608   0.781  0.2804 -0.3746 -0.0346
   71MOL   C20122741   5.209   3.472   0.786 -0.1685 -0.4059 -0.1256
   71MOL   C20222742   5.442   3.268   0.848  0.0315  0.7009 -0.6782
   71MOL   H20322743   5.407   3.247   0.628 -0.4092 -0.3523 -0.3640
   71MOL   H20422744   5.481   3.460   0.599 -0.0426  0.2134  0.9239
   71MOL   H20522745   5.241   3.803   0.723  0.1032 -0.1930 -0.5003
   71MOL   H20622746   5.091   3.646   0.835  1.7850  1.4908  1.0801
   71MOL   H20722747   5.133   3.412   0.834 -0.6074 -0.7075 -1.1788
   71MOL   H20822748   5.414   3.347   0.917 -0.4285 -1.5305  1.7414
   71MOL   H20922749   5.419   3.176   0.901  0.1143  1.9187  1.5081
   71MOL   C21022750   5.594   3.263   0.833  0.4124  0.2344 -0.1687
   71MOL   C21122751   5.658   3.252   0.974 -0.1197  0.3085 -0.4402
   71MOL   C21222752   5.658   3.118   1.033  0.5888  0.8605  0.1494
   71MOL   C21322753   5.728   3.099   1.149 -0.1747  0.0249  0.1665
   71MOL  Cl21422754   5.753   2.934   1.193  0.1678  0.3450 -0.0536
   71MOL   C21522755   5.803   3.200   1.199  0.6171 -0.1416  0.1944
   71MOL   C21622756   5.813   3.328   1.141 -0.3976  0.0792  0.1629
   71MOL   C21722757   5.722   3.357   1.038  0.2257  0.9049 -0.0795
   71MOL   C21822758   5.661   3.161   0.736 -0.1040 -0.2180  0.2718
   71MOL   H21922759   5.616   3.365   0.800  0.3385 -0.1047 -1.3041
   71MOL   H22022760   5.615   3.029   0.991  1.6723  0.1880  0.4631
   71MOL   H22122761   5.853   3.180   1.293 -0.5670 -0.2639  0.8044
   71MOL   H22222762   5.875   3.408   1.178  0.4470 -0.8716  0.7995
   71MOL   H22322763   5.717   3.453   0.988 -4.2392  0.7188 -0.2402
   71MOL   H22422764   5.628   3.058   0.751 -2.7350  0.7598  1.4374
   71MOL   H22522765   5.630   3.180   0.634 -0.0501 -2.7764 -0.2688
   71MOL   C22622766   5.817   3.151   0.735 -0.1096  0.3493  0.0422
   71MOL   C22722767   5.860   3.017   0.705 -0.6421 -0.2763 -0.3111
   71MOL   C22822768   5.862   2.969   0.570 -0.8057  0.2024  0.1951
   71MOL   C22922769   5.913   2.844   0.535 -1.0603  0.1726 -0.0617
   71MOL  Cl23022770   5.950   2.798   0.373  0.0789  0.2119  0.2067
   71MOL   C23122771   5.957   2.757   0.646  0.1413  0.3116  0.2991
   71MOL   C23222772   5.940   2.798   0.778  0.4948 -0.0625 -0.4225
   71MOL   C23322773   5.893   2.927   0.810  0.2208 -0.1005 -0.4974
   71MOL   C23422774   5.898   3.270   0.669 -0.2409 -0.3965  0.0100
   71MOL   H23522775   5.850   3.167   0.837  0.4950 -1.3421  0.1370
   71MOL   H23622776   5.835   3.040   0.492 -2.4587  1.8685  2.2221
   71MOL   H23722777   5.994   2.658   0.625  0.1787  0.5294 -0.6651
   71MOL   H23822778   5.962   2.735   0.863 -2.2342  0.1505  0.4899
   71MOL   H23922779   5.886   2.950   0.915 -3.2105 -2.2004 -0.1870
   71MOL   H24022780   5.880   3.266   0.562 -1.2967  0.5318  0.1335
   71MOL   H24122781   5.855   3.356   0.721  1.1987  1.1330 -1.3074
   71MOL   C24222782   6.041   3.259   0.716  0.1436 -0.9460 -0.4024
   71MOL   C24322783   6.123   3.164   0.627  0.7653 -0.2657 -0.4133
   71MOL   C24422784   6.179   3.046   0.685 -0.9084 -0.5189 -0.2636
   71MOL   C24522785   6.248   2.951   0.605 -0.3593 -0.0190  0.0874
   71MOL  Cl24622786   6.312   2.815   0.679  0.2409 -0.3022 -0.6467
   71MOL   C24722787   6.250   2.969   0.459  0.4214 -0.2187 -0.4920
   71MOL   C24822788   6.197   3.091   0.408 -0.3645  0.4703 -0.5531
   71MOL   C24922789   6.125   3.182   0.488 -0.0704 -0.3092  0.4715
   71MOL   C25022790   6.100   3.405   0.720  0.6777 -0.2565 -0.4811
   71MOL   H25122791   6.044   3.204   0.810 -0.7248 -3.2865 -1.6949
   71MOL   H25222792   6.192   3.026   0.790 -2.4571 -0.4270 -0.0395
   71MOL   H25322793   6.277   2.893   0.387 -1.9773  0.8503 -2.6017
   71MOL   H25422794   6.208   3.108   0.302 -0.2309  3.3504 -0.1252
   71MOL   H25522795   6.079   3.266   0.437  2.1525  1.4339  1.3001
   71MOL   H25622796   6.086   3.448   0.621  0.7274  1.8358  0.3938
   71MOL   H25722797   6.036   3.464   0.785  1.2647  1.5409 -1.4879
   71MOL   C25822798   6.252   3.406   0.771  0.8812 -0.8960  0.0216
   71MOL   C25922799   6.310   3.545   0.759 -0.2180 -0.4678 -0.9264
   71MOL   C26022800   6.269   3.651   0.845 -0.0797 -0.4606  0.1990
   71MOL   C26122801   6.319   3.777   0.838 -0.0259 -0.3351 -0.2324
   71MOL  Cl26222802   6.270   3.895   0.953  0.1898 -0.1899  0.3945
   71MOL   C26322803   6.420   3.808   0.748 -0.3368  0.4495  0.4519
   71MOL   C26422804   6.473   3.710   0.666  0.0059  0.4453 -0.0613
   71MOL   C26522805   6.417   3.578   0.664 -0.6330 -0.6136  0.2975
   71MOL   C26622806   6.264   3.351   0.909 -0.3843  0.3146  0.2285
   71MOL   H26722807   6.308   3.347   0.698 -1.4159 -1.6000 -1.2163
   71MOL   H26822808   6.186   3.632   0.911 -0.4970 -1.5754 -0.6308
   71MOL   H26922809   6.457   3.909   0.741 -1.6079  0.9783  1.1172
   71MOL   H27022810   6.559   3.740   0.609 -0.3076 -1.4579 -1.6037
   71MOL   H27122811   6.467   3.508   0.598 -1.7518 -0.9749 -0.1757
   71MOL   H27222812   6.206   3.412   0.978  0.8359 -0.6039  2.1018
   71MOL   H27322813   6.222   3.251   0.918 -0.7807  0.4866  0.2648
   71MOL   C27422814   6.410   3.335   0.970  0.3703 -0.1636  0.1511
   71MOL   C27522815   6.501   3.251   0.890 -0.5026 -0.7161 -0.2526
   71MOL   C27622816   6.517   3.114   0.905 -0.5351  0.5471 -0.0887
   71MOL   C27722817   6.616   3.032   0.849  0.5292 -0.1782 -0.2125
   71MOL  Cl27822818   6.635   2.864   0.886 -0.0934 -0.1952  0.1638
   71MOL   C27922819   6.708   3.095   0.771  0.1892 -0.3707 -0.1675
   71MOL   C28022820   6.689   3.232   0.736 -0.4751 -0.9937  0.0631
   71MOL   C28122821   6.592   3.311   0.804 -0.0138  0.0135 -0.0643
   71MOL   C28222822   6.470   3.467   1.025 -0.5136  0.3017  0.7827
   71MOL   H28322823   6.382   3.276   1.057  0.3173  0.7895  0.7873
   71MOL   H28422824   6.458   3.057   0.975 -0.3130 -0.4270 -0.6751
   71MOL   H28522825   6.789   3.035   0.734 -0.1223 -1.0907  0.2891
   71MOL   H28622826   6.763   3.285   0.679 -0.9750 -0.3582  0.0094
   71MOL   H28722827   6.585   3.415   0.775  1.8824  0.4125  0.8507
   71MOL   H28822828   6.521   3.528   0.950 -1.1527  1.9189  1.6305
   71MOL   H28922829   6.385   3.524   1.062 -0.9967  0.6240 -0.7590
   71MOL   C29022830   6.566   3.449   1.147  0.8935 -0.0414  0.1173
   71MOL   C29122831   6.693   3.371   1.120  0.2422  0.4012 -0.5272
   71MOL   C29222832   6.723   3.246   1.180 -0.6838 -0.2577  0.1014
   71MOL   C29322833   6.839   3.177   1.150 -1.0212 -0.1033  0.2255
   71MOL  Cl29422834   6.869   3.026   1.219 -0.3164 -0.4775  0.0457
   71MOL   C29522835   6.930   3.225   1.052 -0.4052 -0.0285  0.0570
   71MOL   C29622836   6.907   3.351   0.999  0.0497 -0.6031  0.1385
   71MOL   C29722837   6.790   3.424   1.028 -0.2829  0.2873  0.6084
   71MOL   C29822838   6.593   3.590   1.210 -0.3180 -0.3324 -0.4621
   71MOL   H29922839   6.502   3.395   1.216 -2.0968  1.7817 -1.1609
   71MOL   H30022840   6.656   3.207   1.256 -0.4407 -0.5808  0.1505
   71MOL   H30122841   7.014   3.167   1.017 -0.2632  0.0163  0.3196
   71MOL   H30222842   6.973   3.382   0.919  0.1975 -0.1169  0.4405
   71MOL   H30322843   6.783   3.520   0.979  0.2798  0.1557  0.2599
   71MOL   H30422844   6.690   3.580   1.259 -1.1828  0.1088  1.3906
   71MOL   H30522845   6.598   3.652   1.120  0.5320  0.9228  0.4243
   71MOL   C30622846   6.489   3.653   1.309  0.1881 -0.2004 -0.3367
   71MOL   C30722847   6.545   3.655   1.451  0.0427 -0.8279 -0.3240
   71MOL   C30822848   6.581   3.536   1.513 -0.0647 -0.3094  0.1478
   71MOL   C30922849   6.616   3.532   1.649 -0.3204 -0.6131 -0.4025
   71MOL  Cl31022850   6.669   3.387   1.723  0.4151  0.0409 -0.1312
   71MOL   C31122851   6.633   3.656   1.725  0.0597  0.0107  0.3569
   71MOL   C31222852   6.607   3.778   1.658  0.2780  0.0980 -0.3861
   71MOL   C31322853   6.553   3.781   1.522 -0.3586 -0.7263 -0.0126
   71MOL   C31422854   6.412   3.766   1.265  0.5910  1.1400  0.3594
   71MOL   H31522855   6.413   3.577   1.326  0.6090 -0.3918  0.7290
   71MOL   H31622856   6.577   3.443   1.459  1.3996 -1.8482  2.5973
   71MOL   H31722857   6.659   3.652   1.830 -1.2441  1.1285  0.7311
   71MOL   H31822858   6.611   3.870   1.713 -3.4837 -0.2224  0.6117
   71MOL   H31922859   6.518   3.875   1.482  1.0951 -0.1548  0.0112
   71MOL   H32022860   6.471   3.856   1.250 -0.5423  1.8888  0.2551
   71MOL   H32122861   6.374   3.746   1.164  0.0189  1.0693  0.5860
   71MOL   H32222862   6.325   3.788   1.327 -0.3961  1.1496 -0.9965
   72MOL     C122863   5.744   7.235   5.716  0.0283 -0.4627  0.2547
   72MOL     C222864   5.860   7.215   5.810  0.0946 -0.1946 -0.4482
   72MOL     C322865   5.986   7.175   5.759  0.0261  0.3200  0.1312
   72MOL     C422866   6.089   7.134   5.844  0.1065 -0.0994 -0.3488
   72MOL    Cl522867   6.243   7.079   5.779 -0.4656  0.0642  0.1448
   72MOL     C622868   6.083   7.152   5.983  0.2946  0.2925 -0.0088
   72MOL     C722869   5.962   7.189   6.033 -0.3858 -0.4475  0.4904
   72MOL     C822870   5.852   7.229   5.952  0.2561  0.6528 -0.3342
   72MOL     C922871   5.724   7.375   5.653 -0.3951 -0.3659  0.6202
   72MOL    H1022872   5.652   7.201   5.764  0.0806 -3.1615 -1.4646
   72MOL    H1122873   6.001   7.158   5.654  2.3692  0.7760  0.3614
   72MOL    H1222874   6.156   7.119   6.055  0.9764  0.7313 -0.4884
   72MOL    H1322875   5.949   7.184   6.140  0.0710 -1.3500  0.5087
   72MOL    H1422876   5.754   7.241   5.997  0.7009  0.4622  0.7141
   72MOL    H1522877   5.627   7.364   5.604  0.1419 -2.5851 -0.0058
   72MOL    H1622878   5.700   7.457   5.721  2.8422  0.3498  0.9546
   72MOL    H1722879   5.758   7.159   5.639 -0.6911 -0.7531  0.4094
   72MOL    C1822880   5.829   7.414   5.543 -0.8889 -0.4778  0.7943
   72MOL    C1922881   5.765   7.492   5.434  0.4511 -0.0236  0.1057
   72MOL    C2022882   5.693   7.614   5.457  0.0074  0.0319  0.1786
   72MOL    C2122883   5.636   7.677   5.345  0.3482 -0.4587  0.1630
   72MOL   Cl2222884   5.545   7.814   5.357 -0.2221  0.0150  0.0402
   72MOL    C2322885   5.654   7.622   5.216 -0.4320  0.3159  0.0951
   72MOL    C2422886   5.734   7.507   5.191 -0.4464  0.3250  0.5134
   72MOL    C2522887   5.791   7.440   5.303  0.1171  0.5169  0.4499
   72MOL    C2622888   5.952   7.488   5.599 -0.1031 -0.2887  0.0990
   72MOL    H2722889   5.864   7.317   5.507  0.3920  0.2175  0.1783
   72MOL    H2822890   5.681   7.652   5.558  0.8591 -0.3065  0.4174
   72MOL    H2922891   5.595   7.654   5.132 -1.8195 -0.4546  0.7508
   72MOL    H3022892   5.736   7.465   5.091  1.5918  0.7933  0.3265
   72MOL    H3122893   5.853   7.355   5.278 -0.0784  1.1696 -2.3632
   72MOL    H3222894   5.925   7.591   5.622 -1.8052 -0.3527 -1.4671
   72MOL    H3322895   5.962   7.453   5.702 -1.2618  0.2629  0.4135
   72MOL    C3422896   6.082   7.481   5.520  0.3469  0.3203  0.5029
   72MOL    C3522897   6.080   7.589   5.413  0.3981  0.1914  0.4788
   72MOL    C3622898   6.094   7.546   5.280 -0.0970 -0.2096 -0.4725
   72MOL    C3722899   6.074   7.635   5.173 -0.0371 -0.2735 -0.1745
   72MOL   Cl3822900   6.066   7.598   5.005 -0.1003  0.0587  0.2850
   72MOL    C3922901   6.054   7.773   5.200 -0.6183  0.8437  0.1057
   72MOL    C4022902   6.044   7.819   5.331  0.5529  0.1704  0.2856
   72MOL    C4122903   6.068   7.729   5.438  0.0789  0.2172 -0.2749
   72MOL    C4222904   6.204   7.495   5.615 -0.0708  0.1857 -0.2575
   72MOL    H4322905   6.098   7.384   5.473  4.4381  0.8658  0.6526
   72MOL    H4422906   6.113   7.442   5.259  0.5194 -0.3635  0.7997
   72MOL    H4522907   6.048   7.847   5.122  0.3425  0.6898 -0.1295
   72MOL    H4622908   6.016   7.921   5.357  1.3424  0.4114  0.2037
   72MOL    H4722909   6.062   7.762   5.541 -0.4239  0.4550 -0.3787
   72MOL    H4822910   6.194   7.585   5.676 -1.2086 -0.7189  0.9152
   72MOL    H4922911   6.186   7.426   5.698 -0.2614 -0.7736 -1.0969
   72MOL    C5022912   6.349   7.455   5.568 -0.2160 -0.7070  0.2650
   72MOL    C5122913   6.416   7.570   5.490  0.2653  0.6674 -0.3910
   72MOL    C5222914   6.403   7.698   5.548  0.7415 -0.7327  0.1981
   72MOL    C5322915   6.445   7.810   5.477 -0.2608  0.8822  0.6457
   72MOL   Cl5422916   6.424   7.967   5.540 -0.0778  0.1013  0.0046
   72MOL    C5522917   6.512   7.788   5.352  0.4360  0.5513 -0.2334
   72MOL    C5622918   6.512   7.662   5.292  0.0043  0.0757  0.0140
   72MOL    C5722919   6.467   7.550   5.361  0.5909 -0.1945  0.1892
   72MOL    C5822920   6.439   7.387   5.681  0.0238 -0.7887  0.0014
   72MOL    H5922921   6.331   7.383   5.488 -1.1713  0.9661 -1.0663
   72MOL    H6022922   6.383   7.712   5.653  0.7121 -0.0720  0.1077
   72MOL    H6122923   6.553   7.871   5.296 -0.8785  2.2129  1.1942
   72MOL    H6222924   6.548   7.651   5.190  2.0778 -0.7101  0.8128
   72MOL    H6322925   6.466   7.455   5.310 -1.4912 -1.4486  2.4379
   72MOL    H6422926   6.462   7.473   5.743 -1.9272  0.3235 -0.7783
   72MOL    H6522927   6.378   7.322   5.744 -1.4891 -0.0166 -0.6573
   72MOL    C6622928   6.579   7.328   5.632 -0.2930  0.2843  0.6249
   72MOL    C6722929   6.662   7.302   5.762  0.3082  0.7177  0.1864
   72MOL    C6822930   6.785   7.376   5.781  0.7537 -0.3318  0.1542
   72MOL    C6922931   6.845   7.370   5.907 -0.4949 -0.2816 -0.1015
   72MOL   Cl7022932   6.981   7.475   5.928 -0.5568 -0.2660 -0.1014
   72MOL    C7122933   6.793   7.297   6.010  0.1102  0.6386  0.4435
   72MOL    C7222934   6.678   7.214   5.988  0.4752 -0.7152  0.0966
   72MOL    C7322935   6.613   7.225   5.866 -0.3071 -0.5690 -0.2213
   72MOL    C7422936   6.577   7.208   5.530  0.2156 -0.3702  0.2829
   72MOL    H7522937   6.622   7.411   5.576 -2.3656  0.5467 -0.6196
   72MOL    H7622938   6.817   7.431   5.694 -3.1570 -0.7983 -1.7275
   72MOL    H7722939   6.836   7.300   6.109  0.3119  1.2180  0.3427
   72MOL    H7822940   6.649   7.150   6.070 -1.0769  2.0287  1.7746
   72MOL    H7922941   6.528   7.162   5.845  0.4993 -1.6248 -0.3794
   72MOL    H8022942   6.516   7.123   5.562  0.5797 -0.7360  0.0113
   72MOL    H8122943   6.538   7.237   5.433  1.0129 -2.6149 -0.7333
   72MOL    C8222944   6.717   7.155   5.496 -0.7039  0.3942 -0.1579
   72MOL    C8322945   6.712   7.018   5.431 -0.2686  0.0761  0.1582
   72MOL    C8422946   6.643   7.008   5.309 -0.9329  0.1939  0.0431
   72MOL    C8522947   6.646   6.883   5.238 -0.0438  0.9366  0.0022
   72MOL   Cl8622948   6.578   6.866   5.076  0.2606  0.1088 -0.1463
   72MOL    C8722949   6.699   6.769   5.298 -0.2788  0.0211 -0.1499
   72MOL    C8822950   6.773   6.790   5.420 -0.0560  0.4819 -0.3787
   72MOL    C8922951   6.786   6.912   5.486  0.1202 -0.1004  0.5036
   72MOL    C9022952   6.799   7.260   5.417 -0.2675  0.3130 -0.0206
   72MOL    H9122953   6.765   7.138   5.592  0.9179 -0.1908 -1.0389
   72MOL    H9222954   6.593   7.095   5.269 -0.6982  0.0547 -0.5644
   72MOL    H9322955   6.691   6.676   5.243 -3.0776  0.1099  0.0481
   72MOL    H9422956   6.815   6.704   5.471  1.4074  1.9345  0.9035
   72MOL    H9522957   6.831   6.930   5.583 -3.0940 -0.8037  2.2255
   72MOL    H9622958   6.762   7.292   5.319  0.3776  2.0576  0.2757
   72MOL    H9722959   6.813   7.347   5.481  1.0549 -0.5745  0.9244
   72MOL    C9822960   6.944   7.231   5.376  0.2044  0.6725  0.0419
   72MOL    C9922961   7.030   7.203   5.501 -0.4225  0.3878 -0.1897
   72MOL   C10022962   7.057   7.076   5.542  0.2301 -0.6661 -0.2677
   72MOL   C10122963   7.141   7.052   5.654 -0.0930 -0.3455 -0.1662
   72MOL  Cl10222964   7.182   6.890   5.698  0.2034  0.0798 -0.2120
   72MOL   C10322965   7.179   7.159   5.738 -0.2026  0.3846  0.0855
   72MOL   C10422966   7.142   7.291   5.703 -0.4592 -0.1745  0.7347
   72MOL   C10522967   7.069   7.317   5.581 -0.4570  0.0732  0.1442
   72MOL   C10622968   6.967   7.143   5.250 -0.3595  0.5099  0.0135
   72MOL   H10722969   6.972   7.323   5.326  1.1887 -0.7055 -2.0374
   72MOL   H10822970   7.023   6.996   5.478  2.0362 -1.8944  0.2929
   72MOL   H10922971   7.238   7.138   5.826  2.0501 -1.8935 -1.8521
   72MOL   H11022972   7.167   7.377   5.762  0.2410 -0.9340  1.5488
   72MOL   H11122973   7.046   7.418   5.550  2.2702  0.6008 -0.2412
   72MOL   H11222974   6.934   7.041   5.266  1.2487 -0.1120 -0.4694
   72MOL   H11322975   6.897   7.178   5.174 -3.2914 -2.4295  1.2455
   72MOL   C11422976   7.103   7.138   5.180 -0.6118  0.5010  0.3104
   72MOL   C11522977   7.204   7.047   5.244  0.6102  0.9173 -0.2175
   72MOL   C11622978   7.171   6.910   5.277  0.1638 -0.1210  0.0411
   72MOL   C11722979   7.255   6.824   5.352 -0.7971  0.4233  0.0132
   72MOL  Cl11822980   7.212   6.666   5.390 -0.4706  0.2221 -0.2366
   72MOL   C11922981   7.379   6.880   5.394 -0.4038 -0.4434 -0.2474
   72MOL   C12022982   7.410   7.019   5.372 -0.4489 -0.4762  0.5344
   72MOL   C12122983   7.331   7.090   5.281  0.2992  0.7719 -0.6393
   72MOL   C12222984   7.101   7.110   5.027  0.0863 -0.4672  0.9929
   72MOL   H12322985   7.153   7.234   5.183  0.1428  0.1543 -0.8362
   72MOL   H12422986   7.077   6.871   5.240 -0.2437 -0.6927  1.6223
   72MOL   H12522987   7.444   6.812   5.448 -0.1517  0.8343  1.0958
   72MOL   H12622988   7.503   7.058   5.411 -0.2318  0.8101 -1.1789
   72MOL   H12722989   7.362   7.191   5.259  1.6009  0.3318 -0.9034
   72MOL   H12822990   7.064   7.204   4.987 -0.6529 -1.0244  0.3403
   72MOL   H12922991   7.206   7.095   5.002  0.5944 -1.0759  3.3812
   72MOL   C13022992   7.010   7.006   4.967  0.1312  0.7624 -0.1426
   72MOL   C13122993   6.937   7.050   4.840  0.8498 -0.3706  0.2609
   72MOL   C13222994   7.007   7.090   4.720 -0.3963  0.4679 -0.2392
   72MOL   C13322995   6.936   7.129   4.604  0.5046  0.2703 -0.1287
   72MOL  Cl13422996   7.029   7.182   4.468  0.0377  0.3716  0.1802
   72MOL   C13522997   6.796   7.128   4.602  0.0929  0.3311 -0.2262
   72MOL   C13622998   6.724   7.086   4.720  0.1335  0.3893  0.6248
   72MOL   C13722999   6.791   7.050   4.840 -1.2561  1.0484 -0.5181
   72MOL   C13823000   7.088   6.875   4.941 -0.1408 -0.1530 -0.6259
   72MOL   H13923001   6.931   6.992   5.041  0.2592  1.7910  0.2003
   72MOL   H14023002   7.114   7.098   4.730 -0.5367  0.8868  1.1024
   72MOL   H14123003   6.742   7.153   4.512  2.5651 -0.8587 -2.0838
   72MOL   H14223004   6.616   7.095   4.726  0.0696  0.1309 -0.0807
   72MOL   H14323005   6.728   7.032   4.925 -2.3605  2.2848 -1.0625
   72MOL   H14423006   7.160   6.899   4.863  0.5161  1.6932  0.5194
   72MOL   H14523007   7.149   6.848   5.027 -1.1522  0.7348  0.3922
   72MOL   C14623008   7.012   6.753   4.896 -0.6028 -0.4530 -0.7366
   72MOL   C14723009   7.100   6.677   4.802 -0.4475 -0.3378 -0.3017
   72MOL   C14823010   7.219   6.616   4.848 -0.1780  0.0018 -0.0792
   72MOL   C14923011   7.302   6.543   4.760  0.9991 -0.8421 -0.0688
   72MOL  Cl15023012   7.452   6.473   4.819 -0.2211  0.0139 -0.1653
   72MOL   C15123013   7.264   6.518   4.627 -0.1530  0.6507 -0.0582
   72MOL   C15223014   7.143   6.584   4.581 -0.5023  0.4155 -0.2407
   72MOL   C15323015   7.067   6.660   4.668  0.2158  0.8989  0.2050
   72MOL   C15423016   6.962   6.668   5.016 -0.6246  0.0797  0.4124
   72MOL   H15523017   6.923   6.769   4.834 -1.2728  1.3875  0.6542
   72MOL   H15623018   7.259   6.644   4.944 -2.1495 -0.2922  0.8519
   72MOL   H15723019   7.330   6.459   4.565  1.6891  2.0728  0.4942
   72MOL   H15823020   7.113   6.566   4.479  2.2662 -1.0563 -0.8696
   72MOL   H15923021   6.979   6.716   4.637 -0.6744 -0.8621 -0.5045
   72MOL   H16023022   7.033   6.685   5.096 -2.3387  5.5006  1.0157
   72MOL   H16123023   6.875   6.718   5.060 -0.1582  1.3991 -0.1249
   72MOL   C16223024   6.936   6.513   4.989  0.3308 -0.3886 -0.0588
   72MOL   C16323025   6.908   6.446   5.119  0.4220  1.0959 -0.6101
   72MOL   C16423026   7.013   6.396   5.208 -0.7813  0.1852 -0.0396
   72MOL   C16523027   6.980   6.321   5.318  0.0306  0.2585 -0.4971
   72MOL  Cl16623028   7.114   6.273   5.417 -0.5710 -0.0741  0.2211
   72MOL   C16723029   6.842   6.307   5.353 -0.4351  0.4191 -0.4246
   72MOL   C16823030   6.739   6.365   5.278 -0.1141  0.3676  0.0846
   72MOL   C16923031   6.775   6.435   5.161  0.4962 -0.1402 -0.0186
   72MOL   C17023032   6.835   6.472   4.879  0.1147 -0.6017 -0.7649
   72MOL   H17123033   7.031   6.478   4.950 -1.0331 -1.2880 -2.6819
   72MOL   H17223034   7.118   6.404   5.185 -0.0095 -0.9279  2.9496
   72MOL   H17323035   6.824   6.249   5.442  3.3313 -1.3314 -0.7109
   72MOL   H17423036   6.637   6.351   5.309 -0.6669  0.4597 -1.6530
   72MOL   H17523037   6.690   6.465   5.103 -0.8926 -1.9951  0.9954
   72MOL   H17623038   6.733   6.507   4.895  1.0914  1.6925  0.5999
   72MOL   H17723039   6.862   6.518   4.784  0.0251  0.0540 -0.4729
   72MOL   C17823040   6.817   6.326   4.851  0.0478  0.2944 -0.8507
   72MOL   C17923041   6.698   6.285   4.768  0.4853 -0.7493 -0.6512
   72MOL   C18023042   6.614   6.176   4.801 -0.7985  0.0007 -0.4637
   72MOL   C18123043   6.507   6.135   4.710 -0.8056 -0.0161  0.1525
   72MOL  Cl18223044   6.417   5.989   4.742  0.1609 -0.0036 -0.4792
   72MOL   C18323045   6.497   6.201   4.587  0.0486  0.6049 -0.0057
   72MOL   C18423046   6.570   6.316   4.560  0.5220  0.2608 -0.0592
   72MOL   C18523047   6.671   6.359   4.650 -0.0683 -0.6970  0.4433
   72MOL   C18623048   6.953   6.259   4.799 -0.4954 -0.0320 -0.2436
   72MOL   H18723049   6.808   6.283   4.951 -1.5709 -0.8152 -1.4352
   72MOL   H18823050   6.630   6.103   4.879  1.3030 -1.5672 -2.3096
   72MOL   H18923051   6.412   6.185   4.523  1.3521 -1.9705 -1.1687
   72MOL   H19023052   6.556   6.362   4.463 -0.6664  0.8718  0.3885
   72MOL   H19123053   6.734   6.442   4.620  0.0832 -0.9273  0.1169
   72MOL   H19223054   6.940   6.193   4.713  0.4096  1.3481 -1.4591
   72MOL   H19323055   7.007   6.339   4.748  0.9340 -0.0645  1.1651
   72MOL   C19423056   7.031   6.172   4.899  0.1908 -0.0491 -0.0130
   72MOL   C19523057   6.951   6.048   4.937 -1.0173 -0.2769 -0.2398
   72MOL   C19623058   6.929   6.023   5.075  0.0982  0.5245 -1.3827
   72MOL   C19723059   6.853   5.908   5.120 -0.2124 -0.5433  0.0297
   72MOL  Cl19823060   6.843   5.889   5.287  0.0225 -0.5202 -0.0817
   72MOL   C19923061   6.805   5.817   5.025  0.9696  0.2758 -0.0459
   72MOL   C20023062   6.835   5.842   4.886 -0.7971  0.0832 -0.2496
   72MOL   C20123063   6.906   5.955   4.842 -0.2901  0.2967  0.1542
   72MOL   C20223064   7.176   6.139   4.849  0.1174  0.0163  0.5984
   72MOL   H20323065   7.047   6.238   4.984  2.4385 -0.2302 -0.2440
   72MOL   H20423066   6.964   6.091   5.150 -1.2210 -1.0299  0.6915
   72MOL   H20523067   6.756   5.727   5.059  1.9728  0.2417  1.3313
   72MOL   H20623068   6.799   5.777   4.808 -0.3657  1.1177 -1.3166
   72MOL   H20723069   6.908   5.962   4.735 -0.1760 -3.4602 -0.1719
   72MOL   H20823070   7.169   6.079   4.758 -0.8450  1.7923 -0.5289
   72MOL   H20923071   7.228   6.232   4.827  0.8663 -0.7228 -0.7948
   72MOL   C21023072   7.270   6.057   4.942  0.4368 -0.2638 -0.3609
   72MOL   C21123073   7.362   5.968   4.860  0.2749  0.1810 -0.0628
   72MOL   C21223074   7.479   6.024   4.804  0.1663  0.2462  0.0919
   72MOL   C21323075   7.562   5.939   4.727  0.0370  0.1285  0.1215
   72MOL  Cl21423076   7.713   6.002   4.664 -0.4281  0.0742  0.2983
   72MOL   C21523077   7.536   5.802   4.709 -0.3802 -0.0678 -0.1353
   72MOL   C21623078   7.417   5.753   4.761 -0.5927  0.4839  0.4928
   72MOL   C21723079   7.328   5.834   4.832  0.5113  0.4581 -0.2303
   72MOL   C21823080   7.350   6.144   5.045 -0.4210 -0.2173  0.4323
   72MOL   H21923081   7.203   5.990   4.996 -1.4609  1.1918 -0.8499
   72MOL   H22023082   7.505   6.128   4.820  2.2873  0.1790 -2.5959
   72MOL   H22123083   7.614   5.750   4.655  0.9889  0.3917  1.3435
   72MOL   H22223084   7.394   5.650   4.739  1.0356  0.3178 -0.5096
   72MOL   H22323085   7.233   5.796   4.865  0.7964 -1.3756 -1.3759
   72MOL   H22423086   7.432   6.195   4.994 -0.3154 -0.8512 -0.0449
   72MOL   H22523087   7.291   6.225   5.086 -1.7477 -1.2569  0.5964
   72MOL   C22623088   7.407   6.056   5.158  0.1561 -0.7062  0.9978
   72MOL   C22723089   7.518   6.135   5.220  0.5713 -0.3501 -0.0415
   72MOL   C22823090   7.491   6.239   5.310 -0.5524  0.3921 -0.0414
   72MOL   C22923091   7.590   6.305   5.375  0.6791 -0.5905  0.4388
   72MOL  Cl23023092   7.560   6.441   5.484 -0.1956 -0.1476  0.1304
   72MOL   C23123093   7.726   6.277   5.340  0.0725  0.1425 -1.2648
   72MOL   C23223094   7.755   6.172   5.249  0.3932  0.2295 -0.1552
   72MOL   C23323095   7.653   6.103   5.192  0.1475 -0.7819 -0.0301
   72MOL   C23423096   7.306   6.005   5.266 -0.4572  0.6212  0.8569
   72MOL   H23523097   7.451   5.972   5.103 -0.1130 -0.0881 -0.1870
   72MOL   H23623098   7.389   6.262   5.337 -1.5459 -2.5262 -1.1200
   72MOL   H23723099   7.795   6.330   5.403  0.2486  0.1802 -1.4884
   72MOL   H23823100   7.859   6.142   5.248  0.3850  0.1815  0.5495
   72MOL   H23923101   7.684   6.015   5.137  2.2705 -0.6371  0.9128
   72MOL   H24023102   7.283   6.078   5.344 -2.9472  0.6493  0.1297
   72MOL   H24123103   7.213   5.980   5.216  0.4463 -0.9067 -0.0881
   72MOL   C24223104   7.345   5.870   5.338  0.0350  0.3516  0.7126
   72MOL   C24323105   7.407   5.769   5.243  0.0656  0.1335 -0.7944
   72MOL   C24423106   7.321   5.687   5.164  0.3814  0.2448 -1.0611
   72MOL   C24523107   7.375   5.594   5.072  0.1888 -0.1194 -0.0341
   72MOL  Cl24623108   7.271   5.508   4.966  0.0612 -0.2840 -0.1223
   72MOL   C24723109   7.516   5.570   5.078 -0.1670 -0.1287 -0.2568
   72MOL   C24823110   7.597   5.651   5.148  0.0053 -0.0884  0.0723
   72MOL   C24923111   7.549   5.750   5.234 -0.3873  0.1461 -0.2836
   72MOL   C25023112   7.426   5.896   5.464 -0.1193  0.2755  0.3460
   72MOL   H25123113   7.256   5.816   5.369 -1.1336  1.9838  0.3038
   72MOL   H25223114   7.214   5.694   5.173  0.3504 -1.1231 -0.3027
   72MOL   H25323115   7.553   5.494   5.010 -0.6264  0.1682 -0.8506
   72MOL   H25423116   7.703   5.634   5.135  0.0550 -0.4966  0.9288
   72MOL   H25523117   7.620   5.805   5.293  1.2190 -1.4836 -0.6240
   72MOL   H25623118   7.465   5.801   5.502  0.6349  0.1928 -0.6292
   72MOL   H25723119   7.513   5.957   5.442  2.7671 -2.4649  3.4442
   72MOL   C25823120   7.351   5.956   5.580 -0.5923  0.2381 -0.4028
   72MOL   C25923121   7.241   5.857   5.635  0.5476 -0.5101  0.1874
   72MOL   C26023122   7.274   5.740   5.707  0.4495 -0.0348 -0.2935
   72MOL   C26123123   7.169   5.667   5.766  0.5252 -0.1547 -0.2262
   72MOL  Cl26223124   7.202   5.533   5.865  0.0403  0.2353 -0.4537
   72MOL   C26323125   7.031   5.707   5.755 -0.5906  0.4244 -0.0505
   72MOL   C26423126   7.004   5.822   5.673  0.5878  0.4711 -0.1301
   72MOL   C26523127   7.110   5.892   5.614 -0.2843 -0.5814  0.0327
   72MOL   C26623128   7.454   6.003   5.692  0.1459 -0.2350 -0.2313
   72MOL   H26723129   7.300   6.046   5.544 -0.5996  0.8194  1.0560
   72MOL   H26823130   7.378   5.714   5.719  0.3887  0.4246  1.3045
   72MOL   H26923131   6.958   5.643   5.803 -0.1712  0.2202  0.3169
   72MOL   H27023132   6.903   5.851   5.645  1.0591  0.0192 -2.3666
   72MOL   H27123133   7.086   5.980   5.555  0.8491  0.8176  1.5849
   72MOL   H27223134   7.508   5.914   5.725 -1.8963 -1.6248 -0.5965
   72MOL   H27323135   7.537   6.066   5.659  1.1435 -1.7741 -0.7270
   72MOL   C27423136   7.397   6.071   5.820 -0.2069 -0.7530 -0.1020
   72MOL   C27523137   7.509   6.045   5.923  0.4434 -0.2956  0.0367
   72MOL   C27623138   7.517   5.928   6.002 -0.0214 -0.4301  0.3854
   72MOL   C27723139   7.629   5.918   6.087  0.0379  0.8782  0.5462
   72MOL  Cl27823140   7.648   5.763   6.166  0.0279 -0.2508  0.1181
   72MOL   C27923141   7.723   6.023   6.115  0.2777  0.0582  0.1673
   72MOL   C28023142   7.707   6.143   6.039  0.3547  0.7013 -0.7909
   72MOL   C28123143   7.604   6.150   5.946 -0.5751 -0.5190 -0.9457
   72MOL   C28223144   7.340   6.211   5.800 -0.2187  0.2185  0.5953
   72MOL   H28323145   7.312   6.013   5.858 -0.5923 -0.5651 -0.6761
   72MOL   H28423146   7.435   5.859   5.989  0.5297 -0.9474 -0.3645
   72MOL   H28523147   7.814   6.005   6.169 -0.0129 -1.8934  0.0539
   72MOL   H28623148   7.770   6.228   6.061 -1.0399  1.2749  1.2095
   72MOL   H28723149   7.587   6.248   5.903 -1.8532  0.4870  1.7551
   72MOL   H28823150   7.417   6.276   5.759 -0.0060  1.3211  2.6603
   72MOL   H28923151   7.279   6.189   5.713  0.4275  0.3367  0.1083
   72MOL   C29023152   7.254   6.259   5.914  0.3829 -0.1781  0.4326
   72MOL   C29123153   7.329   6.268   6.046 -0.2841 -0.6212  0.1216
   72MOL   C29223154   7.313   6.159   6.138 -0.0236  0.1202 -0.3360
   72MOL   C29323155   7.381   6.163   6.261  0.2235 -0.4853  0.6052
   72MOL  Cl29423156   7.392   6.025   6.365  0.0981  0.1836  0.4398
   72MOL   C29523157   7.457   6.282   6.285  0.1366 -0.3820 -0.3557
   72MOL   C29623158   7.460   6.393   6.203 -0.3755 -0.2090 -0.2573
   72MOL   C29723159   7.398   6.385   6.078  0.3833 -0.0975  0.1666
   72MOL   C29823160   7.206   6.402   5.862  0.4246  0.0914 -0.5039
   72MOL   H29923161   7.170   6.190   5.928  0.3684 -0.3275 -0.4029
   72MOL   H30023162   7.250   6.075   6.110 -0.1312  0.2835 -0.5896
   72MOL   H30123163   7.515   6.276   6.375 -0.2111  2.8287  0.1371
   72MOL   H30223164   7.527   6.475   6.228 -1.4151  0.3084  0.8810
   72MOL   H30323165   7.410   6.466   6.008 -0.8701 -0.3956 -0.4064
   72MOL   H30423166   7.171   6.467   5.942  1.8402 -0.2274  0.4070
   72MOL   H30523167   7.296   6.454   5.831  0.7108 -0.0201  0.1208
   72MOL   C30623168   7.099   6.404   5.755 -0.5489  0.4781  0.5653
   72MOL   C30723169   6.969   6.330   5.796 -0.0532  0.3312  0.1181
   72MOL   C30823170   6.909   6.235   5.713 -0.1374  0.4112 -0.0140
   72MOL   C30923171   6.786   6.177   5.747 -0.1164  0.1291  0.2873
   72MOL  Cl31023172   6.704   6.086   5.627 -0.3126 -0.1678  0.1266
   72MOL   C31123173   6.733   6.205   5.874 -0.2576  0.1627 -0.0266
   72MOL   C31223174   6.805   6.280   5.972  0.1728 -0.6613  0.7372
   72MOL   C31323175   6.914   6.351   5.925 -0.0553  0.3824 -0.0280
   72MOL   C31423176   7.060   6.546   5.716 -0.0356 -0.3886  0.8160
   72MOL   H31523177   7.137   6.350   5.668  0.8509  1.1600  0.7400
   72MOL   H31623178   6.955   6.199   5.622 -2.0237 -0.6702 -0.5649
   72MOL   H31723179   6.633   6.169   5.896 -1.2587  2.4195 -0.8125
   72MOL   H31823180   6.765   6.295   6.071  0.5964  0.2124  0.7748
   72MOL   H31923181   6.978   6.410   5.988 -0.4934 -0.2417  1.0334
   72MOL   H32023182   7.144   6.610   5.690  1.2572 -2.2224  0.2831
   72MOL   H32123183   6.991   6.540   5.631  0.8445  2.6422 -0.1566
   72MOL   H32223184   7.021   6.594   5.805  0.6122  1.0124  0.3501
   73MOL     C123185   5.800   3.995   5.112 -0.0133 -0.8109  0.0771
   73MOL     C223186   5.687   4.031   5.206  0.2796 -0.3782 -0.4759
   73MOL     C323187   5.710   4.028   5.348  0.5666 -0.0269 -0.5097
   73MOL     C423188   5.605   4.056   5.438  0.3460 -0.7253 -0.0627
   73MOL    Cl523189   5.609   4.059   5.614 -0.1446 -0.3007  0.3367
   73MOL     C623190   5.481   4.092   5.386  0.1886  0.2885 -0.3436
   73MOL     C723191   5.459   4.108   5.249  0.1583 -0.0175 -0.2310
   73MOL     C823192   5.563   4.073   5.160  0.3454 -0.6931  0.2437
   73MOL     C923193   5.806   3.838   5.107 -0.0175  0.0243 -0.1131
   73MOL    H1023194   5.893   4.042   5.141 -0.1617  1.0459 -2.3234
   73MOL    H1123195   5.805   4.008   5.395 -0.6752 -3.2113  0.8607
   73MOL    H1223196   5.397   4.117   5.449 -0.5893  0.2681 -1.3653
   73MOL    H1323197   5.365   4.143   5.209 -0.5408  0.0395  1.4305
   73MOL    H1423198   5.535   4.083   5.057 -0.0797 -0.8019  0.3466
   73MOL    H1523199   5.818   3.788   5.204  0.7534  2.4452  1.0706
   73MOL    H1623200   5.706   3.807   5.078 -0.8254  1.5139  0.9964
   73MOL    H1723201   5.777   4.023   5.009  1.5823 -3.5876 -1.0859
   73MOL    C1823202   5.901   3.791   4.995 -0.7076  0.4993 -0.8662
   73MOL    C1923203   6.049   3.807   5.035 -0.3139  0.1966  0.1555
   73MOL    C2023204   6.091   3.844   5.163 -0.0281 -0.7045 -0.0599
   73MOL    C2123205   6.223   3.831   5.209 -0.4386 -0.1090 -0.3070
   73MOL   Cl2223206   6.263   3.856   5.374 -0.0481  0.0616  0.0979
   73MOL    C2323207   6.318   3.790   5.113  0.5093  0.1316 -0.0738
   73MOL    C2423208   6.281   3.781   4.977 -0.4367  0.1854 -0.7400
   73MOL    C2523209   6.146   3.769   4.938  0.1257 -0.5290  0.1961
   73MOL    C2623210   5.869   3.635   4.966  0.5965  0.5689 -0.1498
   73MOL    H2723211   5.892   3.853   4.906  0.7841  0.8733 -0.7592
   73MOL    H2823212   6.025   3.871   5.245 -0.4946 -1.2963 -0.2397
   73MOL    H2923213   6.421   3.770   5.138 -0.2804 -3.4261  0.5929
   73MOL    H3023214   6.362   3.740   4.918 -0.4670  0.6160 -1.0743
   73MOL    H3123215   6.121   3.745   4.836  3.8463  2.5684 -1.5484
   73MOL    H3223216   5.943   3.606   4.892  1.9471  1.1643  0.9394
   73MOL    H3323217   5.905   3.567   5.043  1.0426 -2.0069 -2.5595
   73MOL    C3423218   5.732   3.609   4.895 -0.0400  0.5957 -0.0083
   73MOL    C3523219   5.709   3.714   4.788  0.4550  0.2434 -0.3791
   73MOL    C3623220   5.607   3.810   4.805 -0.1493  0.1022  1.0133
   73MOL    C3723221   5.596   3.922   4.716  0.7152  0.0277  1.4441
   73MOL   Cl3823222   5.475   4.033   4.752 -0.0328  0.0497 -0.4839
   73MOL    C3923223   5.683   3.929   4.606  0.3276  0.5071 -0.2193
   73MOL    C4023224   5.792   3.836   4.595 -0.0996 -0.4897 -0.3565
   73MOL    C4123225   5.797   3.729   4.682  0.2788 -0.9261  0.1515
   73MOL    C4223226   5.708   3.467   4.848  0.0349 -0.4255 -0.2675
   73MOL    H4323227   5.651   3.622   4.967 -0.9897  2.5804 -1.3991
   73MOL    H4423228   5.538   3.803   4.888 -0.7544  0.2538  0.5319
   73MOL    H4523229   5.681   4.007   4.531  0.4980 -0.9606 -1.7925
   73MOL    H4623230   5.860   3.853   4.513  1.3923 -0.2117  0.9143
   73MOL    H4723231   5.878   3.661   4.663  0.2957 -0.3656 -1.9039
   73MOL    H4823232   5.798   3.447   4.790  0.7506  0.8805  0.3627
   73MOL    H4923233   5.714   3.392   4.927  1.8939  0.4168  0.4203
   73MOL    C5023234   5.581   3.440   4.769 -0.6016 -0.6194 -0.2249
   73MOL    C5123235   5.581   3.304   4.695 -0.4606 -0.5895 -0.4385
   73MOL    C5223236   5.597   3.307   4.559 -0.0783 -0.1410  0.5668
   73MOL    C5323237   5.618   3.181   4.495  0.3007 -0.7458 -0.3923
   73MOL   Cl5423238   5.662   3.182   4.325  0.1155 -0.2412 -0.0461
   73MOL    C5523239   5.616   3.063   4.566  0.7241 -0.2720  0.6087
   73MOL    C5623240   5.596   3.063   4.703  0.1049 -0.2451 -0.7687
   73MOL    C5723241   5.575   3.186   4.771 -0.5963  0.4303 -0.4816
   73MOL    C5823242   5.454   3.462   4.862  0.1538  1.0521  0.2887
   73MOL    H5923243   5.560   3.518   4.697 -0.8249  1.4110  2.0023
   73MOL    H6023244   5.600   3.400   4.505  1.0251  0.4873  1.6963
   73MOL    H6123245   5.636   2.967   4.520 -0.6384 -0.9387  1.3656
   73MOL    H6223246   5.584   2.975   4.765 -2.5466  0.1899 -0.6167
   73MOL    H6323247   5.565   3.189   4.878 -0.9865 -1.7845 -0.4265
   73MOL    H6423248   5.470   3.387   4.939  2.8844  1.7174  0.4183
   73MOL    H6523249   5.466   3.555   4.917 -2.0355  1.1004  0.7282
   73MOL    C6623250   5.316   3.455   4.782  0.0298 -0.6078 -1.0885
   73MOL    C6723251   5.202   3.420   4.877 -0.0680 -0.4080 -0.2320
   73MOL    C6823252   5.187   3.497   4.996 -0.3962 -0.0160 -0.3637
   73MOL    C6923253   5.075   3.480   5.083 -0.4047  0.6941 -0.1088
   73MOL   Cl7023254   5.046   3.578   5.229 -0.3130  0.0958 -0.1880
   73MOL    C7123255   4.979   3.382   5.049  0.5292 -0.2729 -0.3090
   73MOL    C7223256   5.000   3.294   4.932  0.2959 -0.7226  0.1800
   73MOL    C7323257   5.113   3.316   4.850  0.2684  0.5711 -0.3937
   73MOL    C7423258   5.282   3.584   4.698 -0.0208 -0.0540 -0.1191
   73MOL    H7523259   5.312   3.374   4.709 -0.2146 -0.4723 -1.2285
   73MOL    H7623260   5.259   3.572   5.026 -1.9702  1.7262 -0.8482
   73MOL    H7723261   4.889   3.369   5.108  0.3242  0.2778 -0.4996
   73MOL    H7823262   4.930   3.214   4.917 -0.1516 -0.3369  0.2019
   73MOL    H7923263   5.120   3.251   4.764  0.9628 -1.8875  1.4661
   73MOL    H8023264   5.281   3.668   4.767 -1.0664 -0.1452 -0.0111
   73MOL    H8123265   5.364   3.603   4.629  0.1137 -0.8957 -0.1993
   73MOL    C8223266   5.143   3.592   4.626  0.3229 -1.5588  0.5024
   73MOL    C8323267   5.107   3.734   4.579  0.7131  0.6285 -0.2128
   73MOL    C8423268   5.193   3.800   4.490 -0.4745  0.3996 -0.2071
   73MOL    C8523269   5.152   3.924   4.449  0.2825 -1.1457 -0.2361
   73MOL   Cl8623270   5.252   3.997   4.330 -0.4139  0.3934 -0.2619
   73MOL    C8723271   5.036   3.989   4.507  0.0354  0.2940  0.1868
   73MOL    C8823272   4.954   3.927   4.599  0.5026 -0.0581 -0.5084
   73MOL    C8923273   4.990   3.795   4.637 -0.2702  0.2162  0.1403
   73MOL    C9023274   5.114   3.484   4.520  0.0498 -0.1444  0.3077
   73MOL    H9123275   5.089   3.575   4.719  0.3700  0.2997  0.8833
   73MOL    H9223276   5.267   3.742   4.438  0.8985  1.4458  0.5533
   73MOL    H9323277   5.012   4.093   4.490  0.5775  0.5860  1.1513
   73MOL    H9423278   4.873   3.973   4.652  0.2571  0.4772 -1.3290
   73MOL    H9523279   4.940   3.741   4.716  1.2963 -2.3700 -0.5639
   73MOL    H9623280   5.152   3.518   4.423 -4.2826  1.5154 -0.8931
   73MOL    H9723281   5.181   3.400   4.539 -1.1170 -1.5189 -1.5018
   73MOL    C9823282   4.970   3.450   4.487 -0.4190 -0.6578  0.6369
   73MOL    C9923283   4.901   3.520   4.365  0.3867  0.4505 -0.2713
   73MOL   C10023284   4.820   3.634   4.380 -0.3897  0.1840  0.1669
   73MOL   C10123285   4.794   3.713   4.259 -0.3413  0.5280  0.3882
   73MOL  Cl10223286   4.700   3.864   4.261 -0.2647  0.0176 -0.1226
   73MOL   C10323287   4.840   3.670   4.131  0.8847  0.1459 -0.0085
   73MOL   C10423288   4.910   3.549   4.123 -0.2545  0.1279  0.3636
   73MOL   C10523289   4.953   3.483   4.238 -0.0501  0.8627 -0.2761
   73MOL   C10623290   4.942   3.298   4.500 -0.1743 -0.3941 -0.0662
   73MOL   H10723291   4.919   3.496   4.571  0.3724  0.6921  0.3926
   73MOL   H10823292   4.783   3.674   4.474  1.2624 -0.5274  1.1553
   73MOL   H10923293   4.810   3.728   4.044  0.2671  0.4926  0.4261
   73MOL   H11023294   4.944   3.516   4.025  0.4086 -1.6234  1.1628
   73MOL   H11123295   5.014   3.395   4.230  0.7960  1.4975 -0.8280
   73MOL   H11223296   4.957   3.242   4.408 -1.8926 -0.3756 -0.3804
   73MOL   H11323297   5.000   3.259   4.583 -1.4310  2.3597  2.2368
   73MOL   C11423298   4.795   3.271   4.544  0.3717 -0.7990  0.1568
   73MOL   C11523299   4.766   3.120   4.536 -0.3201  0.8601 -0.3478
   73MOL   C11623300   4.696   3.075   4.424 -0.5830 -0.8455  0.0532
   73MOL   C11723301   4.669   2.942   4.402  0.3422  0.2641  0.0525
   73MOL  Cl11823302   4.577   2.893   4.265 -0.4612 -0.1037  0.1243
   73MOL   C11923303   4.712   2.844   4.498  0.3301  0.0771 -0.1748
   73MOL   C12023304   4.791   2.886   4.610  0.2886 -0.6455  0.5234
   73MOL   C12123305   4.823   3.022   4.627 -0.3015 -0.5534  0.3391
   73MOL   C12223306   4.772   3.327   4.686 -0.3634  0.2421 -0.3690
   73MOL   H12323307   4.735   3.314   4.464 -0.3068 -0.6355  0.7508
   73MOL   H12423308   4.658   3.144   4.351 -0.6718 -0.2291  0.6788
   73MOL   H12523309   4.688   2.740   4.487  1.1030  0.0185 -1.4342
   73MOL   H12623310   4.829   2.815   4.682  3.3809  0.7326  0.3010
   73MOL   H12723311   4.888   3.044   4.710 -1.7356 -0.5656  1.4936
   73MOL   H12823312   4.807   3.246   4.750 -0.1224  1.0742  0.5484
   73MOL   H12923313   4.831   3.414   4.713  0.3782  0.6120 -2.9752
   73MOL   C13023314   4.630   3.353   4.736 -0.0651 -0.0103  0.0575
   73MOL   C13123315   4.622   3.393   4.885 -0.1400 -0.1390  0.4705
   73MOL   C13223316   4.571   3.297   4.974  0.5449  0.0936 -0.6083
   73MOL   C13323317   4.555   3.334   5.108 -0.2091 -0.1356 -0.0971
   73MOL  Cl13423318   4.464   3.238   5.222  0.3908  0.2317  0.1191
   73MOL   C13523319   4.609   3.458   5.157  0.9057  0.1273  0.2524
   73MOL   C13623320   4.664   3.545   5.065 -0.6555 -1.0301 -0.1054
   73MOL   C13723321   4.661   3.522   4.931 -0.6039 -0.0831  0.5303
   73MOL   C13823322   4.556   3.449   4.640  0.1143  0.0070 -0.2955
   73MOL   H13923323   4.581   3.256   4.726  0.0790 -0.0657 -0.1023
   73MOL   H14023324   4.522   3.205   4.944 -0.1700  0.0001  0.7936
   73MOL   H14123325   4.601   3.493   5.259  0.0382 -2.0463  0.9682
   73MOL   H14223326   4.695   3.643   5.098 -2.4873  0.4370 -2.5258
   73MOL   H14323327   4.702   3.590   4.858  0.4321 -1.3538 -0.0759
   73MOL   H14423328   4.514   3.529   4.702  2.0756  0.9972 -0.2103
   73MOL   H14523329   4.628   3.499   4.577  0.4786 -1.9851 -1.5001
   73MOL   C14623330   4.439   3.379   4.551 -0.1663  0.3269  0.1202
   73MOL   C14723331   4.316   3.332   4.630  0.6582 -0.1455 -0.4390
   73MOL   C14823332   4.303   3.363   4.773 -0.7226  0.3577  0.4688
   73MOL   C14923333   4.198   3.320   4.852  0.4122 -0.2742 -0.0631
   73MOL  Cl15023334   4.186   3.367   5.016 -0.6303  0.3524 -0.2327
   73MOL   C15123335   4.096   3.248   4.790 -0.2829 -0.4569 -0.2286
   73MOL   C15223336   4.107   3.216   4.651  0.4094 -0.2156  0.1918
   73MOL   C15323337   4.215   3.258   4.568 -0.4652 -0.3795 -0.4396
   73MOL   C15423338   4.395   3.472   4.431  0.2776  0.2089 -0.0473
   73MOL   H15523339   4.491   3.293   4.511  1.1656  2.3073 -2.5481
   73MOL   H15623340   4.364   3.436   4.824 -0.9879  0.5607  0.4972
   73MOL   H15723341   4.014   3.209   4.848 -2.4311  1.1202 -2.1661
   73MOL   H15823342   4.022   3.156   4.621  0.1920 -0.3422  1.0520
   73MOL   H15923343   4.219   3.233   4.463  0.0570 -3.5723  0.2715
   73MOL   H16023344   4.303   3.431   4.388  1.5306 -1.3858 -1.2596
   73MOL   H16123345   4.375   3.577   4.454  0.0198  0.1389  0.0574
   73MOL   C16223346   4.493   3.492   4.313 -0.3281 -0.2596 -0.1323
   73MOL   C16323347   4.510   3.365   4.228  0.0823 -0.1094 -0.4837
   73MOL   C16423348   4.633   3.350   4.162 -0.0281 -1.2052 -0.1803
   73MOL   C16523349   4.657   3.247   4.074 -0.3335 -0.7815 -0.3395
   73MOL  Cl16623350   4.799   3.236   3.984 -0.0052 -0.3572 -0.0580
   73MOL   C16723351   4.555   3.155   4.045  0.7247 -0.2343  0.0374
   73MOL   C16823352   4.432   3.157   4.114 -0.0111 -0.3104 -0.1885
   73MOL   C16923353   4.407   3.270   4.198 -0.2419 -0.5580 -0.1140
   73MOL   C17023354   4.475   3.614   4.220  0.0118 -0.8415 -0.5742
   73MOL   H17123355   4.593   3.505   4.354  0.3655  1.0553 -2.1303
   73MOL   H17223356   4.707   3.425   4.182  0.8554 -1.6542 -1.6343
   73MOL   H17323357   4.564   3.086   3.962 -1.2003  0.9257 -1.1786
   73MOL   H17423358   4.343   3.102   4.089 -1.6696  1.5245  1.4330
   73MOL   H17523359   4.307   3.284   4.235 -0.1734  4.2198 -1.3283
   73MOL   H17623360   4.458   3.704   4.280 -0.9963 -1.7334  0.5024
   73MOL   H17723361   4.563   3.645   4.164 -0.5373  2.1266  0.1425
   73MOL   C17823362   4.358   3.603   4.115 -0.2804 -0.3996  0.4345
   73MOL   C17923363   4.215   3.588   4.168 -0.0829  0.4955 -0.0351
   73MOL   C18023364   4.123   3.508   4.110  0.1087  0.2193  0.8465
   73MOL   C18123365   3.997   3.490   4.165 -0.4994  0.2982  0.4531
   73MOL  Cl18223366   3.898   3.379   4.078 -0.2165 -0.0565  0.0714
   73MOL   C18323367   3.954   3.546   4.288  1.0843  0.2900 -0.2136
   73MOL   C18423368   4.044   3.643   4.341 -0.0056  0.3653 -0.2718
   73MOL   C18523369   4.173   3.662   4.279  0.7704  0.2413 -0.0409
   73MOL   C18623370   4.364   3.716   4.003 -0.1755 -0.2827  0.5315
   73MOL   H18723371   4.388   3.512   4.064  0.1119  0.6571 -1.2905
   73MOL   H18823372   4.166   3.444   4.033  1.8693 -0.3912  2.2951
   73MOL   H18923373   3.859   3.537   4.338  1.0658  2.2236  0.1495
   73MOL   H19023374   4.007   3.720   4.407 -1.8307 -0.7831  0.0718
   73MOL   H19123375   4.238   3.738   4.319 -0.6537  1.1492  0.6086
   73MOL   H19223376   4.266   3.746   3.966 -0.3416 -0.6211  0.7022
   73MOL   H19323377   4.408   3.808   4.039  1.7173 -0.6330 -0.7992
   73MOL   C19423378   4.440   3.682   3.871  0.0063  0.2145 -0.0156
   73MOL   C19523379   4.394   3.546   3.821 -0.5118  0.0862  0.6410
   73MOL   C19623380   4.262   3.526   3.783  0.3420  0.9512  0.0508
   73MOL   C19723381   4.234   3.400   3.724 -0.4362 -0.3883 -0.4015
   73MOL  Cl19823382   4.070   3.352   3.700 -0.2605  0.1521  0.2273
   73MOL   C19923383   4.337   3.309   3.706 -0.5349 -0.0112  0.3579
   73MOL   C20023384   4.467   3.325   3.748  0.0867  0.4896  0.2694
   73MOL   C20123385   4.494   3.447   3.802 -0.4248  0.6261 -0.0561
   73MOL   C20223386   4.439   3.801   3.769 -0.6698 -0.5085  0.0423
   73MOL   H20323387   4.545   3.670   3.895 -1.0934 -2.0311  4.2128
   73MOL   H20423388   4.190   3.606   3.789  0.7920  1.7617 -3.8883
   73MOL   H20523389   4.316   3.215   3.659 -1.2977  0.3955 -0.1316
   73MOL   H20623390   4.538   3.247   3.723  1.5083  2.5206 -2.2969
   73MOL   H20723391   4.595   3.481   3.823  0.5183 -1.5177 -0.9798
   73MOL   H20823392   4.366   3.878   3.795 -0.8026 -0.0600 -1.6178
   73MOL   H20923393   4.537   3.850   3.766 -1.9251  1.9598 -2.9888
   73MOL   C21023394   4.409   3.779   3.617 -0.1072  0.2352 -0.4548
   73MOL   C21123395   4.384   3.910   3.545 -0.0107  0.2508 -0.2527
   73MOL   C21223396   4.483   4.016   3.543  0.4073  1.0446 -0.3332
   73MOL   C21323397   4.453   4.137   3.478  0.8592  0.6158 -0.5473
   73MOL  Cl21423398   4.576   4.254   3.494 -0.3004 -0.1965  0.2487
   73MOL   C21523399   4.338   4.140   3.393  0.1149  0.0189  0.2229
   73MOL   C21623400   4.240   4.039   3.396 -0.2156 -0.9497 -0.0572
   73MOL   C21723401   4.258   3.928   3.476  0.5387 -0.2046 -0.4679
   73MOL   C21823402   4.528   3.703   3.539  0.6059  0.6050 -0.6931
   73MOL   H21923403   4.316   3.723   3.622 -0.1098  0.3536  0.9454
   73MOL   H22023404   4.571   4.001   3.604  0.2925  2.4123  0.1725
   73MOL   H22123405   4.324   4.230   3.335  0.4258 -0.8591 -1.2527
   73MOL   H22223406   4.157   4.045   3.327 -1.6238 -1.4342  1.5647
   73MOL   H22323407   4.181   3.853   3.482 -1.8286  2.1292 -0.7834
   73MOL   H22423408   4.616   3.766   3.531  1.4066 -0.3463  0.6072
   73MOL   H22523409   4.559   3.619   3.601 -0.3309  0.5056 -0.3485
   73MOL   C22623410   4.491   3.664   3.394 -0.1562  0.3104 -0.7283
   73MOL   C22723411   4.615   3.607   3.323  0.2002  0.2183  0.3278
   73MOL   C22823412   4.658   3.666   3.200 -0.0299 -0.2665  0.1425
   73MOL   C22923413   4.776   3.628   3.134 -1.0907 -0.1765  0.0937
   73MOL  Cl23023414   4.838   3.706   2.995  0.0131  0.2781 -0.0727
   73MOL   C23123415   4.847   3.517   3.186 -0.1181  0.5953  1.5976
   73MOL   C23223416   4.799   3.452   3.297 -0.1245  0.3744 -0.5116
   73MOL   C23323417   4.685   3.493   3.365 -0.2640  0.2542  0.8683
   73MOL   C23423418   4.371   3.557   3.391  0.1482 -0.5928  0.2983
   73MOL   H23523419   4.475   3.759   3.343  0.4512 -0.5646 -2.5836
   73MOL   H23623420   4.602   3.746   3.154  0.9997 -0.0027 -0.6738
   73MOL   H23723421   4.944   3.492   3.145 -0.4505  0.0537  1.1423
   73MOL   H23823422   4.858   3.372   3.340  0.6545  1.4349  0.4096
   73MOL   H23923423   4.659   3.441   3.456  1.3237  0.6431  1.5742
   73MOL   H24023424   4.405   3.476   3.456  1.1366 -0.9158 -0.6146
   73MOL   H24123425   4.280   3.578   3.449 -0.5583 -0.9619 -0.6650
   73MOL   C24223426   4.348   3.487   3.250 -0.0377  0.1828  0.0848
   73MOL   C24323427   4.307   3.337   3.251 -0.5364  0.3088  0.1360
   73MOL   C24423428   4.336   3.253   3.143 -0.0565  0.1147 -0.0806
   73MOL   C24523429   4.265   3.131   3.131 -0.5490 -0.5060 -0.4320
   73MOL  Cl24623430   4.293   3.044   2.981 -0.3038 -0.0039 -0.1396
   73MOL   C24723431   4.184   3.086   3.230  0.0510  0.0365  0.8682
   73MOL   C24823432   4.163   3.166   3.346 -0.1855 -0.0111 -0.0323
   73MOL   C24923433   4.225   3.293   3.354  0.1905 -0.1781  0.0845
   73MOL   C25023434   4.255   3.572   3.153 -0.3018 -0.2044 -0.0928
   73MOL   H25123435   4.442   3.491   3.195  0.1706  1.7566  0.5405
   73MOL   H25223436   4.374   3.282   3.046 -3.0976 -0.2333 -1.4480
   73MOL   H25323437   4.135   2.990   3.227 -0.5518  0.3365  0.9544
   73MOL   H25423438   4.109   3.130   3.432 -0.1586  0.7057  0.2858
   73MOL   H25523439   4.208   3.357   3.440 -1.0929  1.4361 -1.3564
   73MOL   H25623440   4.289   3.675   3.155 -1.4359  0.2193 -1.8587
   73MOL   H25723441   4.263   3.544   3.048  0.4287 -0.1544 -0.0583
   73MOL   C25823442   4.103   3.583   3.191 -0.5765  0.1863 -0.5223
   73MOL   C25923443   4.039   3.721   3.176  0.5447 -0.0734 -0.2587
   73MOL   C26023444   4.075   3.797   3.061  0.3433  0.2332  0.2932
   73MOL   C26123445   4.017   3.924   3.041 -0.4087 -0.0737  0.1197
   73MOL  Cl26223446   4.056   4.017   2.905  0.0733 -0.2757 -0.2408
   73MOL   C26323447   3.927   3.977   3.139  0.3355 -0.2071 -0.0555
   73MOL   C26423448   3.894   3.903   3.256 -0.2489 -0.1490 -0.1769
   73MOL   C26523449   3.951   3.775   3.271 -0.1765 -0.3409 -0.2051
   73MOL   C26623450   4.020   3.486   3.106  0.2411  0.3807  0.1794
   73MOL   H26723451   4.085   3.565   3.297 -1.3795  1.2112 -0.4714
   73MOL   H26823452   4.141   3.753   2.987  0.7669  2.0117 -0.4116
   73MOL   H26923453   3.893   4.078   3.125 -3.0299 -1.6232 -2.6929
   73MOL   H27023454   3.816   3.939   3.322  1.0007 -0.3635  1.4507
   73MOL   H27123455   3.922   3.713   3.356 -0.0300  0.1409  0.1975
   73MOL   H27223456   3.963   3.539   3.030 -1.9904 -0.1303  1.4338
   73MOL   H27323457   4.095   3.420   3.064  0.3353 -0.3732  1.5058
   73MOL   C27423458   3.912   3.404   3.192  0.1369  0.3695  0.6949
   73MOL   C27523459   3.797   3.480   3.250  0.0468 -0.1311 -0.1695
   73MOL   C27623460   3.765   3.466   3.386 -0.3953  0.4755  0.8128
   73MOL   C27723461   3.660   3.535   3.444  0.7029 -0.1354 -0.1785
   73MOL  Cl27823462   3.630   3.518   3.609 -0.0579  0.0537  0.3118
   73MOL   C27923463   3.570   3.605   3.358  0.4203 -0.1683 -0.4866
   73MOL   C28023464   3.605   3.628   3.222  0.0659  0.1236  0.0900
   73MOL   C28123465   3.718   3.565   3.172 -0.6701 -0.1416 -0.2910
   73MOL   C28223466   3.858   3.284   3.108 -0.3209  0.0608  0.2967
   73MOL   H28323467   3.967   3.362   3.276 -0.8932  2.0274  2.2425
   73MOL   H28423468   3.828   3.407   3.451  0.3179  0.5184  0.1714
   73MOL   H28523469   3.484   3.659   3.394  2.0524  0.3144  2.8936
   73MOL   H28623470   3.546   3.690   3.155 -4.4922 -4.0604 -0.0316
   73MOL   H28723471   3.731   3.588   3.067 -2.5939  1.9527 -0.1000
   73MOL   H28823472   3.799   3.327   3.028 -1.7869 -4.4506 -1.1521
   73MOL   H28923473   3.949   3.234   3.076 -0.6337 -0.1401 -0.2778
   73MOL   C29023474   3.762   3.179   3.167  0.1534  0.2766  0.6923
   73MOL   C29123475   3.736   3.072   3.067 -0.5833 -0.0322 -0.2138
   73MOL   C29223476   3.606   3.034   3.035  0.6593  0.3198  0.7054
   73MOL   C29323477   3.582   2.923   2.953  0.6991 -0.0064 -0.0537
   73MOL  Cl29423478   3.427   2.855   2.933 -0.3121  0.1052  0.1283
   73MOL   C29523479   3.689   2.857   2.888  0.4244 -0.3021 -0.4874
   73MOL   C29623480   3.817   2.896   2.918 -0.1254  0.6504  0.0350
   73MOL   C29723481   3.845   2.999   3.012  0.3701  0.1344 -0.2150
   73MOL   C29823482   3.813   3.134   3.303  0.2848  0.1638 -0.1261
   73MOL   H29923483   3.669   3.232   3.187 -0.4336 -0.7971  0.7796
   73MOL   H30023484   3.528   3.092   3.082 -0.6636 -2.3170  1.8722
   73MOL   H30123485   3.671   2.774   2.821  0.2574 -0.1315 -0.6521
   73MOL   H30223486   3.896   2.829   2.887  0.8094  1.6446  0.2666
   73MOL   H30323487   3.949   3.015   3.038 -0.3597  1.1269  2.2209
   73MOL   H30423488   3.901   3.071   3.287  0.4310  0.5931 -1.1050
   73MOL   H30523489   3.856   3.220   3.354 -0.6333 -0.9890  2.6841
   73MOL   C30623490   3.710   3.061   3.386  0.8290  0.2620 -0.3564
   73MOL   C30723491   3.782   2.972   3.481 -0.4420  0.4640 -0.2512
   73MOL   C30823492   3.874   3.022   3.575 -0.3781  0.5118 -0.8062
   73MOL   C30923493   3.931   2.937   3.674  0.6072  0.8585 -0.1434
   73MOL  Cl31023494   4.035   2.997   3.799  0.2091  0.0325 -0.1651
   73MOL   C31123495   3.902   2.799   3.671  0.9000  0.6445 -0.0821
   73MOL   C31223496   3.814   2.748   3.570 -0.5703  0.2574  0.1648
   73MOL   C31323497   3.765   2.832   3.473 -0.0558 -0.5720  0.2165
   73MOL   C31423498   3.604   3.155   3.451  0.4300  0.3113  0.1133
   73MOL   H31523499   3.665   2.988   3.319 -1.2020 -0.0145  1.2240
   73MOL   H31623500   3.913   3.121   3.596  1.4579 -0.6660  1.6370
   73MOL   H31723501   3.957   2.732   3.735  1.4619  2.0062  0.8820
   73MOL   H31823502   3.800   2.642   3.559  0.6671  0.0762  0.2429
   73MOL   H31923503   3.697   2.793   3.399 -0.1112  0.0935 -0.0853
   73MOL   H32023504   3.531   3.094   3.504 -1.3161 -0.2982 -2.9112
   73MOL   H32123505   3.643   3.232   3.518 -2.5913  0.3982  1.8762
   73MOL   H32223506   3.543   3.217   3.386 -0.5478  1.2953  1.9122
   74MOL     C123507   6.998   6.976   0.087 -0.0363 -0.2048 -0.3465
   74MOL     C223508   6.857   7.004   0.042  1.0451  0.1862 -0.6846
   74MOL     C323509   6.820   7.126   8.413  0.7119  0.0699 -0.6049
   74MOL     C423510   6.687   7.152   8.368  0.2563 -0.1455 -0.2857
   74MOL    Cl523511   6.642   7.290   8.277 -0.5413 -0.3311 -0.2242
   74MOL     C623512   6.588   7.054   8.394 -0.1823 -1.2608 -0.2464
   74MOL     C723513   6.628   6.932   0.014  0.3414 -0.3003  0.5110
   74MOL     C823514   6.754   6.915   0.070 -0.1879 -0.0877  0.0206
   74MOL     C923515   7.042   7.082   0.184 -0.1167  0.1557  0.1606
   74MOL    H1023516   7.054   6.988   8.430 -1.2398  0.4057 -1.0005
   74MOL    H1123517   6.885   7.208   8.386  1.8954 -0.6442  0.0355
   74MOL    H1223518   6.492   7.073   8.347  0.1322  0.7255 -0.1467
   74MOL    H1323519   6.561   6.848   0.026 -1.0729  0.8508  0.8415
   74MOL    H1423520   6.778   6.822   0.118  1.6913  0.2325 -0.2596
   74MOL    H1523521   7.149   7.068   0.199  0.3527  0.7944 -2.3321
   74MOL    H1623522   7.021   7.171   0.124 -2.1878 -0.4561 -0.0653
   74MOL    H1723523   7.007   6.873   0.121  2.0480  0.0168 -0.1750
   74MOL    C1823524   6.971   7.087   0.322 -0.0374 -0.0201 -0.2699
   74MOL    C1923525   6.973   6.948   0.388  0.5468  0.3224  0.1893
   74MOL    C2023526   6.851   6.885   0.425  1.0648  0.4513 -0.0289
   74MOL    C2123527   6.851   6.749   0.465  0.0962 -0.3625 -0.0479
   74MOL   Cl2223528   6.701   6.676   0.497  0.3187  0.0604  0.2412
   74MOL    C2323529   6.972   6.676   0.472 -1.0600 -0.0817  0.3294
   74MOL    C2423530   7.094   6.735   0.440 -0.3067 -0.0972 -0.5602
   74MOL    C2523531   7.092   6.872   0.393 -0.0325  0.7762  0.2189
   74MOL    C2623532   7.031   7.177   0.427 -0.2325 -0.2887 -0.1241
   74MOL    H2723533   6.868   7.117   0.309  0.0058  0.4348  0.4326
   74MOL    H2823534   6.763   6.946   0.412  1.3136  1.0875  1.1336
   74MOL    H2923535   6.964   6.571   0.495 -1.2071 -0.6913 -2.3454
   74MOL    H3023536   7.186   6.678   0.443  0.4415  1.1501  0.5878
   74MOL    H3123537   7.187   6.920   0.371  1.4269 -2.0275  0.1603
   74MOL    H3223538   6.965   7.179   0.514 -0.9753  0.3685 -0.6993
   74MOL    H3323539   7.122   7.141   0.476  0.3136  0.8133 -0.3176
   74MOL    C3423540   7.046   7.329   0.405 -0.2507  0.6854 -0.2677
   74MOL    C3523541   6.950   7.395   0.309  0.3736 -0.1441 -0.4361
   74MOL    C3623542   6.812   7.405   0.335  0.4390  0.3354 -0.7221
   74MOL    C3723543   6.722   7.445   0.231  0.0891 -0.3758 -0.1885
   74MOL   Cl3823544   6.550   7.445   0.258 -0.1291  0.5786  0.0257
   74MOL    C3923545   6.770   7.493   0.106 -0.0409 -0.3187 -0.0697
   74MOL    C4023546   6.908   7.500   0.087  0.5468 -0.4844  0.3458
   74MOL    C4123547   6.996   7.456   0.189 -0.3311 -0.9286 -0.1560
   74MOL    C4223548   7.059   7.416   0.537 -0.0927 -0.4256  0.3611
   74MOL    H4323549   7.144   7.324   0.357  0.5833  0.2646  1.4401
   74MOL    H4423550   6.769   7.370   0.427 -1.4846 -0.5212 -1.9192
   74MOL    H4523551   6.699   7.530   0.034  1.2403 -0.2112 -1.2894
   74MOL    H4623552   6.941   7.529   8.424 -1.0432  1.2015  0.2892
   74MOL    H4723553   7.101   7.453   0.167 -0.1440 -2.0431  0.8399
   74MOL    H4823554   6.967   7.402   0.595 -0.4249  0.9361  0.1839
   74MOL    H4923555   7.139   7.371   0.596  0.2295 -1.1097 -0.5802
   74MOL    C5023556   7.104   7.565   0.520 -0.2854  0.7458  0.2987
   74MOL    C5123557   6.998   7.655   0.467 -0.3713 -0.5605 -0.1410
   74MOL    C5223558   6.876   7.667   0.536  0.3568  0.3449 -0.3900
   74MOL    C5323559   6.776   7.755   0.491 -0.0979  0.0920  0.1350
   74MOL   Cl5423560   6.633   7.792   0.585  0.0838 -0.2087  0.4096
   74MOL    C5523561   6.795   7.829   0.366 -0.0061 -1.2645 -0.3841
   74MOL    C5623562   6.910   7.802   0.289  0.2681  0.3966  0.2894
   74MOL    C5723563   7.012   7.719   0.345 -0.1471 -0.2237  0.7398
   74MOL    C5823564   7.163   7.623   0.652  0.3515  0.2714  0.3412
   74MOL    H5923565   7.182   7.571   0.444 -0.3304  2.3529  0.3577
   74MOL    H6023566   6.869   7.633   0.638 -3.5577 -0.7428 -0.9130
   74MOL    H6123567   6.711   7.888   0.333  1.1341  0.3337 -0.5035
   74MOL    H6223568   6.917   7.848   0.192 -0.0157 -0.0748  0.0431
   74MOL    H6323569   7.102   7.715   0.285 -1.8512  0.4010 -1.9589
   74MOL    H6423570   7.095   7.598   0.733  1.3290 -1.8096  0.5632
   74MOL    H6523571   7.255   7.565   0.668  1.2896  1.6747  0.1376
   74MOL    C6623572   7.214   7.774   0.666  1.0969 -0.1272 -0.2921
   74MOL    C6723573   7.096   7.874   0.666 -0.6023  0.3433 -0.0302
   74MOL    C6823574   6.998   7.868   0.768 -0.2852  0.3338  0.5621
   74MOL    C6923575   6.894   7.956   0.772 -0.5992  0.2403  0.5690
   74MOL   Cl7023576   6.773   7.938   0.893 -0.3330  0.1569 -0.5324
   74MOL    C7123577   6.880   8.058   0.676  0.4164  0.1992  0.2502
   74MOL    C7223578   6.977   8.061   0.575 -0.1038 -0.4493 -0.1890
   74MOL    C7323579   7.089   7.975   0.572  0.3435 -0.8018  0.6112
   74MOL    C7423580   7.281   7.785   0.806 -0.5847 -0.6225 -0.2963
   74MOL    H7523581   7.281   7.802   0.584  1.3458  2.0767  0.6245
   74MOL    H7623582   6.995   7.790   0.843  0.1720 -0.6896 -0.4623
   74MOL    H7723583   6.797   8.127   0.675  0.7689  0.6393  0.9666
   74MOL    H7823584   6.970   8.127   0.489 -2.0907 -2.6697 -1.7945
   74MOL    H7923585   7.162   7.967   0.494 -0.2004 -2.0117  0.2195
   74MOL    H8023586   7.208   7.755   0.881  0.5970  2.8398  2.3872
   74MOL    H8123587   7.363   7.714   0.817  1.5313  1.8478  0.1123
   74MOL    C8223588   7.339   7.929   0.840 -0.0733  0.1925 -0.0484
   74MOL    C8323589   7.371   7.943   0.987 -0.3643 -0.0913  0.6651
   74MOL    C8423590   7.298   8.036   1.060 -0.1499 -0.3681  0.1922
   74MOL    C8523591   7.327   8.071   1.194  0.4324 -0.2805  0.8642
   74MOL   Cl8623592   7.255   8.205   1.276 -0.4777  0.0245  0.5015
   74MOL    C8723593   7.428   8.005   1.254 -0.2767  1.4862 -0.4130
   74MOL    C8823594   7.507   7.905   1.185  0.0824 -0.6831 -0.6330
   74MOL    C8923595   7.476   7.872   1.052 -0.2342 -0.3923 -0.1431
   74MOL    C9023596   7.462   7.967   0.757 -0.0053  0.3224 -0.1269
   74MOL    H9123597   7.266   8.002   0.805 -0.0025 -0.3827 -1.4325
   74MOL    H9223598   7.222   8.096   1.013 -0.3864 -0.5014  0.4062
   74MOL    H9323599   7.453   8.027   1.357 -1.0603  0.2479  0.0572
   74MOL    H9423600   7.600   7.865   1.221  1.1513  2.3254  0.1572
   74MOL    H9523601   7.531   7.800   0.994  1.0458  0.3293  0.1671
   74MOL    H9623602   7.541   7.899   0.790 -1.1230 -1.4807 -1.1139
   74MOL    H9723603   7.439   7.956   0.651  1.1976 -0.0681 -0.3616
   74MOL    C9823604   7.518   8.112   0.763 -0.5591  0.4283 -0.2058
   74MOL    C9923605   7.439   8.213   0.677 -0.0015 -0.1691 -0.2461
   74MOL   C10023606   7.313   8.255   0.730 -0.7834 -0.3182  0.1449
   74MOL   C10123607   7.232   8.336   0.650 -0.1978  0.2976 -0.1180
   74MOL  Cl10223608   7.073   8.369   0.706 -0.2894  0.0843 -0.0473
   74MOL   C10323609   7.278   8.383   0.519  0.1285 -0.1314  0.2755
   74MOL   C10423610   7.404   8.355   0.474  0.2406  0.3763  0.1782
   74MOL   C10523611   7.483   8.265   0.549 -0.0372  0.3546 -0.0803
   74MOL   C10623612   7.568   8.166   0.900  0.5516 -0.2883  0.0828
   74MOL   H10723613   7.605   8.101   0.698 -0.4205  2.5498 -0.4314
   74MOL   H10823614   7.287   8.229   0.832 -2.5044  0.6199 -0.0358
   74MOL   H10923615   7.218   0.006   0.451 -2.4348 -0.3220  2.2913
   74MOL   H11023616   7.451   8.386   0.382 -0.1122 -0.1012 -0.1655
   74MOL   H11123617   7.582   8.231   0.520 -0.7823 -1.7022 -0.2955
   74MOL   H11223618   7.490   8.180   0.975  0.7102  2.4522 -0.1960
   74MOL   H11323619   7.619   8.086   0.954 -1.1505 -0.5578  1.3100
   74MOL   C11423620   7.659   8.296   0.905 -0.0450  0.4585  0.6048
   74MOL   C11523621   7.669   8.339   1.046  0.2345  0.0958 -0.2123
   74MOL   C11623622   7.599   0.015   1.089  0.2855 -0.4330  0.1039
   74MOL   C11723623   7.606   0.061   1.220 -0.3477 -0.5375  0.7745
   74MOL  Cl11823624   7.511   0.196   1.282 -0.0343 -0.4888  0.5184
   74MOL   C11923625   7.688   8.432   1.311 -0.0629  0.2386  0.3241
   74MOL   C12023626   7.758   8.320   1.275 -0.4716  0.4667  0.2895
   74MOL   C12123627   7.750   8.273   1.141  0.2558 -0.0632  0.4160
   74MOL   C12223628   7.796   8.269   0.841  0.3068 -0.0156 -0.3794
   74MOL   H12323629   7.600   8.371   0.853  3.0297  1.6268 -1.3085
   74MOL   H12423630   7.545   0.069   1.012  1.3878 -0.5632 -0.7712
   74MOL   H12523631   7.694   0.044   1.408  0.6302 -0.7204  0.7569
   74MOL   H12623632   7.816   8.266   1.349  0.0285  0.3579 -0.1857
   74MOL   H12723633   7.800   8.181   1.112 -3.4008 -1.9061 -0.2895
   74MOL   H12823634   7.867   8.215   0.904  0.0673  1.1843  0.9542
   74MOL   H12923635   7.784   8.201   0.757  0.3981 -0.3042 -0.1623
   74MOL   C13023636   7.862   8.401   0.798 -0.0186  0.6107  0.3806
   74MOL   C13123637   7.933   0.041   0.919  0.2321  0.1650  0.1373
   74MOL   C13223638   7.893   0.169   0.958 -0.3265 -0.3011 -0.5933
   74MOL   C13323639   7.942   0.220   1.082  0.1439 -0.4413 -0.1012
   74MOL  Cl13423640   7.892   0.373   1.136  0.2121  0.3342  0.4715
   74MOL   C13523641   8.040   0.147   1.164  0.7988  0.3712  0.5346
   74MOL   C13623642   8.091   0.026   1.113 -0.7982 -0.1579 -0.1926
   74MOL   C13723643   8.033   8.407   0.990 -0.0769 -0.4330  0.3346
   74MOL   C13823644   7.976   8.371   0.690 -0.2532 -0.0251 -0.0469
   74MOL   H13923645   7.791   0.038   0.755 -1.4098 -2.0998 -2.0109
   74MOL   H14023646   7.814   0.218   0.903 -1.7352 -1.2129  0.5771
   74MOL   H14123647   8.078   0.187   1.257 -0.8202 -0.6475  1.6603
   74MOL   H14223648   8.163   8.411   1.177 -1.8901  0.8692  1.8908
   74MOL   H14323649   8.073   8.309   0.968  2.5720  1.0862 -2.0125
   74MOL   H14423650   8.065   8.340   0.745 -0.0926 -1.7668 -1.2425
   74MOL   H14523651   7.956   8.284   0.629 -0.9660 -0.6844  1.1244
   74MOL   C14623652   7.998   0.048   0.587  0.1141  0.8988 -0.3610
   74MOL   C14723653   8.126   0.020   0.513 -0.0278 -0.2511  0.2073
   74MOL   C14823654   8.132   8.371   0.404  0.4646 -0.1076  0.0012
   74MOL   C14923655   8.249   8.356   0.328 -0.8272  0.3888 -0.1993
   74MOL  Cl15023656   8.257   8.248   0.190 -0.5938  0.1668 -0.1213
   74MOL   C15123657   8.359   8.432   0.363  0.2528 -0.4246 -0.2153
   74MOL   C15223658   8.361   0.064   0.487  0.2723  0.5903 -0.3212
   74MOL   C15323659   8.242   0.084   0.557  0.0621 -0.5033 -0.0956
   74MOL   C15423660   7.873   0.060   0.494 -0.6434 -0.5135 -0.2244
   74MOL   H15523661   8.002   0.146   0.634 -0.2833  0.8466 -0.2174
   74MOL   H15623662   8.046   8.313   0.376  0.0868  1.5259 -2.3878
   74MOL   H15723663   0.015   8.425   0.306 -0.2488 -0.4922 -1.0256
   74MOL   H15823664   0.022   0.102   0.516  0.0278  0.8081  0.2043
   74MOL   H15923665   8.236   0.153   0.640 -1.7449  0.5881 -1.0894
   74MOL   H16023666   7.859   8.406   0.434 -0.4899 -0.6833 -0.0073
   74MOL   H16123667   7.780   0.057   0.552 -0.5800 -4.1452 -0.2247
   74MOL   C16223668   7.864   0.189   0.405  0.7497 -0.4855 -0.0835
   74MOL   C16323669   7.820   0.160   0.263 -0.6134  0.5530  1.0288
   74MOL   C16423670   7.923   0.152   0.167 -0.3726  0.5130 -0.4620
   74MOL   C16523671   7.889   0.125   0.028  0.4464  0.2044 -0.2219
   74MOL  Cl16623672   8.017   0.098   8.346  0.0455 -0.1657 -0.0812
   74MOL   C16723673   7.751   0.121   8.422  0.9321 -0.1411  0.1285
   74MOL   C16823674   7.657   0.121   0.087 -0.4634  0.0229 -0.1175
   74MOL   C16923675   7.687   0.139   0.223  0.1525 -0.6094  0.2006
   74MOL   C17023676   7.802   0.313   0.488  0.4913  0.7309  0.4210
   74MOL   H17123677   7.969   0.218   0.401  0.6264  0.3783  2.4410
   74MOL   H17223678   8.024   0.176   0.196 -1.2156  0.2659  2.7867
   74MOL   H17323679   7.725   0.109   8.317 -0.2395  1.0140  0.2745
   74MOL   H17423680   7.553   0.117   0.057 -0.2027  1.4491 -1.2828
   74MOL   H17523681   7.604   0.146   0.291 -1.2883  1.7484 -1.6985
   74MOL   H17623682   7.703   0.271   0.507  1.7127 -2.0295  0.9225
   74MOL   H17723683   7.845   0.341   0.584  0.1597  3.6709 -0.2352
   74MOL   C17823684   7.783   0.439   0.408 -0.2398  0.2055 -0.3245
   74MOL   C17923685   7.664   0.519   0.465 -0.9636  0.0071 -0.2112
   74MOL   C18023686   7.532   0.513   0.410  0.3462 -0.6558  0.7161
   74MOL   C18123687   7.428   0.593   0.466 -0.6837  0.9879  0.0856
   74MOL  Cl18223688   7.273   0.577   0.395 -0.4036 -0.2924 -0.4069
   74MOL   C18323689   7.453   0.677   0.576  0.8497 -0.3505 -0.8038
   74MOL   C18423690   7.583   0.682   0.627  0.4758 -0.6474  0.2919
   74MOL   C18523691   7.686   0.603   0.576  0.5020 -0.2619 -0.6409
   74MOL   C18623692   7.913   0.526   0.378  0.2326 -0.0423  0.0848
   74MOL   H18723693   7.751   0.397   0.313  1.6404 -0.4530 -0.6897
   74MOL   H18823694   7.510   0.454   0.322 -3.7376  2.1175 -0.3030
   74MOL   H18923695   7.376   0.734   0.625  0.8776  0.4532 -1.6840
   74MOL   H19023696   7.607   0.746   0.711 -1.8320  0.6157  0.0296
   74MOL   H19123697   7.787   0.623   0.606  0.4053 -0.4607 -0.1643
   74MOL   H19223698   7.903   0.619   0.433 -0.5532 -0.4801  0.7069
   74MOL   H19323699   8.003   0.482   0.419  0.4874  1.9547  1.7550
   74MOL   C19423700   7.942   0.555   0.228 -0.4977 -0.5530 -0.7437
   74MOL   C19523701   7.811   0.585   0.148 -0.0646 -0.5477 -0.6027
   74MOL   C19623702   7.775   0.503   0.046  0.7062 -0.1154  0.6139
   74MOL   C19723703   7.647   0.525   8.416  0.6085  0.1793  0.2411
   74MOL  Cl19823704   7.613   0.421   8.279  0.1214 -0.2534  0.0712
   74MOL   C19923705   7.555   0.622   0.026 -0.0666 -0.4301  0.1474
   74MOL   C20023706   7.594   0.705   0.129 -0.0505  0.3913 -0.4392
   74MOL   C20123707   7.718   0.684   0.192 -0.2696 -0.4594 -0.1014
   74MOL   C20223708   8.044   0.674   0.208  0.1145  0.2416 -0.3405
   74MOL   H20323709   7.968   0.455   0.194  1.7733 -0.0986 -0.3874
   74MOL   H20423710   7.834   0.425   8.434  0.4235  0.6808 -1.0763
   74MOL   H20523711   7.468   0.640   8.400 -0.4591  0.0724  0.8394
   74MOL   H20623712   7.515   0.776   0.145 -2.3760 -2.3359  0.7239
   74MOL   H20723713   7.737   0.742   0.281 -1.6457  0.1499 -0.2002
   74MOL   H20823714   8.033   0.700   0.103  0.7496  0.9379 -0.2410
   74MOL   H20923715   8.003   0.761   0.260  0.9962  0.7737 -0.5313
   74MOL   C21023716   8.186   0.641   0.242 -0.0938  0.3741 -0.3374
   74MOL   C21123717   8.234   0.514   0.173 -0.6424 -0.6311 -0.5600
   74MOL   C21223718   8.201   0.483   0.036  0.3392  0.4055  0.2045
   74MOL   C21323719   8.243   0.361   8.412 -0.0732  1.0650 -0.1090
   74MOL  Cl21423720   8.220   0.324   8.242  0.0521  0.2714  0.0747
   74MOL   C21523721   8.338   0.285   0.045  0.1845  0.1579 -0.6021
   74MOL   C21623722   8.366   0.307   0.180 -0.5972  0.7789  0.0285
   74MOL   C21723723   8.306   0.413   0.246 -0.4016  0.1389  0.6893
   74MOL   C21823724   8.270   0.770   0.205 -0.2169 -0.8838  0.4025
   74MOL   H21923725   8.191   0.622   0.350 -2.4265 -2.3434 -0.6610
   74MOL   H22023726   8.143   0.557   8.417 -0.8004 -0.1723  0.6253
   74MOL   H22123727   8.372   0.191   0.003 -2.4143 -1.6865  1.2556
   74MOL   H22223728   8.421   0.230   0.231 -1.0020 -0.2901 -1.1147
   74MOL   H22323729   8.334   0.426   0.349  1.1805 -1.2253  0.4646
   74MOL   H22423730   8.246   0.801   0.104 -0.2433  1.6143  1.1406
   74MOL   H22523731   8.244   0.852   0.272  2.6379 -0.3868  0.9819
   74MOL   C22623732   8.415   0.759   0.196 -0.4355 -0.4805 -0.6641
   74MOL   C22723733   0.046   0.864   0.101 -0.3162  0.2199  0.5377
   74MOL   C22823734   0.096   0.826   8.407 -0.6594 -0.4371  0.0297
   74MOL   C22923735   0.176   0.926   8.336  0.6098  0.5816 -0.7226
   74MOL  Cl23023736   0.242   0.885   8.184 -0.1574  0.3797  0.0310
   74MOL   C23123737   0.198   1.056   8.387  0.3837  0.5365  1.0798
   74MOL   C23223738   0.129   1.091   0.076 -0.0954  0.7513  0.0599
   74MOL   C23323739   0.055   0.997   0.145  0.2194 -0.4667 -0.0110
   74MOL   C23423740   0.040   0.767   0.334 -0.2356  0.4234  0.8489
   74MOL   H23523741   0.010   0.661   0.159  0.5321 -0.6863  0.6214
   74MOL   H23623742   0.081   0.727   8.367 -1.0089  0.6252 -2.5286
   74MOL   H23723743   0.263   1.121   8.330 -0.9225  1.4614  0.6087
   74MOL   H23823744   0.136   1.192   0.113  1.3877  0.3744  0.8256
   74MOL   H23923745   0.009   1.028   0.238  1.4516 -0.1910  0.5043
   74MOL   H24023746   0.025   0.870   0.366  1.6423  0.6265  1.1511
   74MOL   H24123747   8.406   0.709   0.394 -1.4017  0.0132 -0.8644
   74MOL   C24223748   0.186   0.714   0.347  0.6761 -0.1176  0.3064
   74MOL   C24323749   0.263   0.795   0.456 -0.4059 -0.5155  0.0087
   74MOL   C24423750   0.208   0.831   0.586  0.1164  0.1761  0.1327
   74MOL   C24523751   0.283   0.905   0.682 -0.5567  0.3210 -0.5204
   74MOL  Cl24623752   0.213   0.937   0.840  0.3183  0.5130 -0.0328
   74MOL   C24723753   0.414   0.939   0.657 -0.1848  0.3609  0.9905
   74MOL   C24823754   0.469   0.908   0.526 -0.1000 -0.0787  0.3868
   74MOL   C24923755   0.392   0.846   0.428 -0.7022 -0.7641  0.0148
   74MOL   C25023756   0.192   0.560   0.361 -0.0702 -0.2969  0.5166
   74MOL   H25123757   0.232   0.737   0.251  0.2380  0.4686  0.2335
   74MOL   H25223758   0.105   0.807   0.609  0.2638 -0.5968 -0.0213
   74MOL   H25323759   0.473   0.985   0.736  0.0852 -0.7207  1.4349
   74MOL   H25423760   0.567   0.938   0.494 -0.5746 -1.4660 -2.5233
   74MOL   H25523761   0.435   0.808   0.337 -0.4536 -1.3909  0.3912
   74MOL   H25623762   0.151   0.536   0.459  1.4011 -0.8355  1.0243
   74MOL   H25723763   0.126   0.520   0.284 -0.9706 -1.8583  2.0802
   74MOL   C25823764   0.331   0.499   0.357 -0.2875 -0.2255  0.0168
   74MOL   C25923765   0.336   0.354   0.415  0.1169 -0.2810 -0.2915
   74MOL   C26023766   0.418   0.328   0.531 -0.5324  0.3479  0.1939
   74MOL   C26123767   0.436   0.196   0.573  0.1302 -0.5482  0.0389
   74MOL  Cl26223768   0.526   0.167   0.718  0.1876  0.4927  0.2792
   74MOL   C26323769   0.352   0.090   0.520 -1.1505  0.1688  0.0429
   74MOL   C26423770   0.278   0.121   0.402 -0.5952 -0.6888  1.1698
   74MOL   C26523771   0.270   0.248   0.348  0.2241 -0.1320  0.2353
   74MOL   C26623772   0.396   0.501   0.217  0.2892 -0.1130 -0.0130
   74MOL   H26723773   0.390   0.555   0.429  2.1316 -1.3615 -1.0237
   74MOL   H26823774   0.471   0.413   0.573 -0.9549  1.2028 -0.9723
   74MOL   H26923775   0.363   8.427   0.564  2.6654  0.6186  0.2645
   74MOL   H27023776   0.222   0.035   0.367  0.3389 -0.2923 -1.4047
   74MOL   H27123777   0.210   0.271   0.261  1.6891 -0.3845 -0.8723
   74MOL   H27223778   0.335   0.435   0.156 -0.5047 -0.7453  1.4305
   74MOL   H27323779   0.374   0.603   0.184 -0.1981  1.0468  3.6451
   74MOL   C27423780   0.551   0.488   0.202  0.1464  0.1969  0.8546
   74MOL   C27523781   0.597   0.353   0.244 -0.7518 -0.2607 -0.1490
   74MOL   C27623782   0.541   0.240   0.186 -0.2121 -0.4205 -0.2535
   74MOL   C27723783   0.581   0.114   0.234  0.3452 -1.0062  0.4033
   74MOL  Cl27823784   0.494   8.407   0.194  0.6876 -0.1772 -0.0030
   74MOL   C27923785   0.683   0.098   0.321  0.4115 -0.0149 -0.7604
   74MOL   C28023786   0.744   0.207   0.382  0.6157  0.0667 -0.1631
   74MOL   C28123787   0.696   0.339   0.343  0.6207  0.1568 -0.5002
   74MOL   C28223788   0.594   0.496   0.053  0.1809  0.1273  0.0990
   74MOL   H28323789   0.610   0.546   0.274  0.7708 -0.8996  1.2349
   74MOL   H28423790   0.463   0.240   0.111 -3.6843  4.2997  3.0923
   74MOL   H28523791   0.704   0.000   0.362 -2.1391 -0.4687 -0.4420
   74MOL   H28623792   0.825   0.195   0.453  1.5555  0.4581 -1.1508
   74MOL   H28723793   0.735   0.425   0.396  0.4446  0.4240 -0.8028
   74MOL   H28823794   0.703   0.486   0.060  0.2520  1.0883  0.4106
   74MOL   H28923795   0.555   0.407   0.003  0.6419  0.5860 -1.1179
   74MOL   C29023796   0.546   0.617   8.406  0.7012  0.3405  0.3293
   74MOL   C29123797   0.579   0.752   0.037 -0.4453 -0.6175 -0.0422
   74MOL   C29223798   0.714   0.776   0.076  0.4480  0.7778 -0.2455
   74MOL   C29323799   0.750   0.904   0.118  0.2603  0.3483 -0.4726
   74MOL  Cl29423800   0.913   0.930   0.148  0.1185  0.3492  0.2966
   74MOL   C29523801   0.646   0.999   0.143  0.0708  0.8062 -0.4794
   74MOL   C29623802   0.508   0.962   0.128 -0.0349  0.4692  0.0636
   74MOL   C29723803   0.477   0.839   0.072  0.4343  0.4931  0.5751
   74MOL   C29823804   0.581   0.610   8.253  0.1550  0.9272 -0.5434
   74MOL   H29923805   0.437   0.607   8.400  0.7391  1.1591 -2.4141
   74MOL   H30023806   0.788   0.700   0.055  1.9683  2.2040 -0.1235
   74MOL   H30123807   0.658   1.094   0.193  0.6021  0.9329 -0.8383
   74MOL   H30223808   0.429   1.036   0.134  1.0068  1.6247 -0.3161
   74MOL   H30323809   0.377   0.808   0.048  1.9016 -3.1588 -1.2144
   74MOL   H30423810   0.538   0.695   8.199  1.3018  0.2749 -2.5156
   74MOL   H30523811   0.684   0.640   8.237  0.1438  1.6818  0.7048
   74MOL   C30623812   0.543   0.482   8.184 -0.1014  0.1884 -0.4349
   74MOL   C30723813   0.402   0.441   8.183  0.8763 -0.0715 -0.2801
   74MOL   C30823814   0.301   0.526   8.124  0.0418  0.0266  0.0283
   74MOL   C30923815   0.161   0.508   8.155 -0.5610  0.3192 -0.2015
   74MOL  Cl31023816   0.041   0.615   8.108  0.4465  0.1354  0.1934
   74MOL   C31123817   0.132   0.397   8.230 -0.3343  0.1244 -0.3513
   74MOL   C31223818   0.231   0.308   8.280 -0.0465 -0.5471  0.6029
   74MOL   C31323819   0.367   0.327   8.260  0.8535  0.0399  0.3688
   74MOL   C31423820   0.599   0.466   8.041 -0.1277 -0.2242 -0.6847
   74MOL   H31523821   0.596   0.405   8.240 -1.4478 -0.0938  0.4741
   74MOL   H31623822   0.340   0.613   8.074  1.0843 -1.0065 -0.9777
   74MOL   H31723823   0.030   0.372   8.254 -0.2052 -0.9828 -0.9209
   74MOL   H31823824   0.189   0.223   8.332 -2.5487 -0.4299 -1.1301
   74MOL   H31923825   0.443   0.262   8.301 -0.7348 -1.1373  1.5271
   74MOL   H32023826   0.597   0.556   7.980  2.3219  1.4201  1.5709
   74MOL   H32123827   0.705   0.449   8.059  0.4680  3.3834 -0.4430
   74MOL   H32223828   0.558   0.381   7.986 -0.3747  0.5705 -1.7418
   75MOL     C123829   5.817   7.405   4.612  0.0547  0.2229 -0.3669
   75MOL     C223830   5.710   7.319   4.544 -0.2493  0.0403 -0.3054
   75MOL     C323831   5.572   7.309   4.589 -0.3860  0.5541  0.3615
   75MOL     C423832   5.473   7.226   4.523 -0.3087 -0.8355  0.2154
   75MOL    Cl523833   5.308   7.253   4.559  0.1507 -0.2660 -0.2836
   75MOL     C623834   5.520   7.137   4.428  0.0849 -0.1885 -0.5627
   75MOL     C723835   5.650   7.143   4.382 -0.4813 -0.1826 -0.3325
   75MOL     C823836   5.744   7.239   4.436  0.0347 -0.0511  0.6599
   75MOL     C923837   5.863   7.374   4.757  0.0399  0.0688 -0.2154
   75MOL    H1023838   5.783   7.509   4.617  0.8286  0.4235  0.8637
   75MOL    H1123839   5.539   7.380   4.662  0.4992  1.1993  0.1352
   75MOL    H1223840   5.452   7.083   4.364  1.0691 -0.7334 -1.1626
   75MOL    H1323841   5.682   7.071   4.309 -0.0301  0.8344 -1.1533
   75MOL    H1423842   5.839   7.248   4.385 -0.2216 -0.7609  0.0353
   75MOL    H1523843   5.916   7.461   4.795 -0.3119 -0.4267  1.4182
   75MOL    H1623844   5.770   7.369   4.814  1.9791 -1.9657  2.9280
   75MOL    H1723845   5.903   7.404   4.545  0.9476  1.7835  0.7311
   75MOL    C1823846   5.944   7.248   4.794 -0.2688 -0.8552  0.0942
   75MOL    C1923847   6.071   7.237   4.703 -0.1313  0.2204 -0.1000
   75MOL    C2023848   6.190   7.304   4.739  0.5532  0.5423 -0.2424
   75MOL    C2123849   6.302   7.294   4.656 -0.2271  0.2633 -0.5957
   75MOL   Cl2223850   6.452   7.357   4.714 -0.1124  0.1560 -0.1181
   75MOL    C2323851   6.304   7.216   4.540  0.4073 -0.0482  0.2469
   75MOL    C2423852   6.189   7.150   4.503  0.3296 -0.4861  0.8600
   75MOL    C2523853   6.074   7.163   4.584 -0.3783  0.3420  0.0171
   75MOL    C2623854   5.969   7.236   4.947  0.0128  0.2412  0.1710
   75MOL    H2723855   5.891   7.163   4.752  0.7617 -1.0465 -0.8764
   75MOL    H2823856   6.200   7.359   4.831  1.2167 -0.2796  0.1866
   75MOL    H2923857   6.393   7.208   4.479 -0.0164  1.5275 -0.6255
   75MOL    H3023858   6.173   7.091   4.414 -2.1151 -0.7110  1.4033
   75MOL    H3123859   5.987   7.107   4.553  1.9194 -1.2587 -3.8441
   75MOL    H3223860   6.001   7.330   4.992  1.6173  0.2187 -0.8732
   75MOL    H3323861   5.873   7.204   4.986  1.0303 -3.0155  0.1908
   75MOL    C3423862   6.072   7.125   4.984 -0.4272 -0.3503 -0.3783
   75MOL    C3523863   6.098   7.134   5.134  0.0494  0.3758 -0.3495
   75MOL    C3623864   5.993   7.111   5.226 -0.5366 -0.3215  0.6705
   75MOL    C3723865   6.023   7.074   5.357 -0.6757 -0.0246 -0.2838
   75MOL   Cl3823866   5.900   7.015   5.456  0.2154  0.2340  0.3227
   75MOL    C3923867   6.154   7.089   5.408 -0.1952 -0.0611  0.1192
   75MOL    C4023868   6.256   7.128   5.321 -0.2975 -0.1190 -0.6448
   75MOL    C4123869   6.227   7.148   5.183  0.3763 -0.6371  0.1869
   75MOL    C4223870   6.019   6.991   4.935  0.4408 -0.7475  0.7128
   75MOL    H4323871   6.171   7.138   4.941 -0.1915  0.8096  0.4760
   75MOL    H4423872   5.893   7.103   5.186 -0.5720  2.8250 -0.0286
   75MOL    H4523873   6.177   7.058   5.509  3.1850 -0.7674 -0.7891
   75MOL    H4623874   6.358   7.130   5.357  0.3663  0.1607 -2.4584
   75MOL    H4723875   6.312   7.158   5.116 -0.2245  0.5541 -0.4162
   75MOL    H4823876   5.923   6.976   4.984 -0.6493  0.0280 -1.1323
   75MOL    H4923877   5.990   6.993   4.830  0.9079 -0.4804  0.5854
   75MOL    C5023878   6.104   6.860   4.941 -0.3782  0.0260  0.0758
   75MOL    C5123879   6.096   6.802   5.079  0.4008  0.6460 -1.0719
   75MOL    C5223880   5.972   6.768   5.137 -0.5176 -0.0044  0.0726
   75MOL    C5323881   5.965   6.691   5.255 -0.5242  0.2355  0.2227
   75MOL   Cl5423882   5.813   6.618   5.305 -0.0289 -0.4084  0.1284
   75MOL    C5523883   6.083   6.662   5.323  0.3320  0.6060 -0.4009
   75MOL    C5623884   6.211   6.709   5.277  0.3827  0.6916 -0.3613
   75MOL    C5723885   6.216   6.768   5.150  0.1942  0.4424 -0.1385
   75MOL    C5823886   6.055   6.751   4.844  0.6250 -0.4235 -0.5130
   75MOL    H5923887   6.208   6.885   4.921 -0.2052  0.0252  0.9738
   75MOL    H6023888   5.881   6.777   5.079 -0.1675 -0.5912 -0.5630
   75MOL    H6123889   6.079   6.607   5.416 -0.5399  0.6925 -0.3782
   75MOL    H6223890   6.300   6.697   5.337  0.2982 -0.1279 -0.3855
   75MOL    H6323891   6.314   6.794   5.114  0.6898 -1.1144  0.0643
   75MOL    H6423892   6.088   6.655   4.881 -1.4730 -0.5937  1.0480
   75MOL    H6523893   5.946   6.752   4.838  0.5606 -0.9130  0.5104
   75MOL    C6623894   6.111   6.751   4.703  0.2955  0.0776 -1.4495
   75MOL    C6723895   6.264   6.773   4.691 -0.0571 -0.0047 -0.0576
   75MOL    C6823896   6.316   6.861   4.595 -0.8769 -0.3687  0.1314
   75MOL    C6923897   6.455   6.867   4.567 -0.1215 -0.1069  0.3896
   75MOL   Cl7023898   6.506   6.968   4.438  0.2297  0.1878  0.1805
   75MOL    C7123899   6.547   6.793   4.641  0.2322  0.0806  0.0707
   75MOL    C7223900   6.498   6.702   4.741  0.4186 -0.2147  0.8564
   75MOL    C7323901   6.357   6.695   4.764  0.7218  0.2508 -0.3372
   75MOL    C7423902   6.051   6.627   4.632  0.4966  0.1909  0.3306
   75MOL    H7523903   6.068   6.832   4.644  0.4504  0.9632 -0.3604
   75MOL    H7623904   6.245   6.904   4.526 -1.1025 -3.1990 -1.4925
   75MOL    H7723905   6.653   6.793   4.620  0.5991  0.0979  1.7990
   75MOL    H7823906   6.567   6.639   4.796  0.8613 -2.2866 -1.9326
   75MOL    H7923907   6.322   6.614   4.826 -2.1535  1.6145 -0.1120
   75MOL    H8023908   6.087   6.537   4.682  0.1928  0.2248  0.6171
   75MOL    H8123909   5.942   6.628   4.639  0.5875 -0.6630  2.2321
   75MOL    C8223910   6.084   6.611   4.483 -1.1759  0.7234 -0.1677
   75MOL    C8323911   6.048   6.465   4.449  0.1575 -0.1917 -0.1069
   75MOL    C8423912   5.920   6.415   4.427  0.1724 -0.6875  0.3385
   75MOL    C8523913   5.898   6.289   4.384  0.9039 -0.4245 -0.5701
   75MOL   Cl8623914   5.741   6.247   4.332 -0.1353  0.0049  0.3068
   75MOL    C8723915   5.999   6.191   4.377  0.1711 -0.0759 -0.3246
   75MOL    C8823916   6.132   6.236   4.392  0.1936  0.5069 -0.5653
   75MOL    C8923917   6.157   6.368   4.431 -0.3489  0.1897 -0.6494
   75MOL    C9023918   6.011   6.706   4.386 -0.1818 -0.7705  0.3589
   75MOL    H9123919   6.192   6.621   4.471 -1.2572  0.2538 -1.3543
   75MOL    H9223920   5.839   6.487   4.433  0.6172 -0.0094 -1.4949
   75MOL    H9323921   5.968   6.091   4.350  2.0754 -1.0181  0.8763
   75MOL    H9423922   6.217   6.170   4.381 -1.3427 -1.7953  1.1248
   75MOL    H9523923   6.261   6.395   4.439 -0.5542  1.6274 -2.6567
   75MOL    H9623924   5.905   6.685   4.374  0.0798 -0.4550 -3.2199
   75MOL    H9723925   6.010   6.807   4.426 -2.5031 -0.5059 -0.3189
   75MOL    C9823926   6.088   6.712   4.249 -0.2687  0.6377  0.4050
   75MOL    C9923927   5.991   6.774   4.148  0.2273 -0.1630 -0.0193
   75MOL   C10023928   5.961   6.697   4.030  0.3723  0.1585 -0.0097
   75MOL   C10123929   5.878   6.759   3.931 -0.2731  0.0642  0.2805
   75MOL  Cl10223930   5.847   6.673   3.785 -0.1360 -0.1154  0.1293
   75MOL   C10323931   5.815   6.884   3.955 -0.0471 -0.5528 -0.2254
   75MOL   C10423932   5.833   6.947   4.075  0.0142 -0.4148 -0.3637
   75MOL   C10523933   5.923   6.896   4.171  0.3377  0.0917  0.8699
   75MOL   C10623934   6.214   6.801   4.256 -0.6157 -0.0222  0.0414
   75MOL   H10723935   6.111   6.609   4.223  0.7196  0.2215  2.8384
   75MOL   H10823936   5.998   6.600   4.003 -1.0162 -0.9739  2.0337
   75MOL   H10923937   5.751   6.917   3.875 -0.6690 -0.4267  0.3222
   75MOL   H11023938   5.775   7.037   4.089  0.2940 -0.0180 -1.7208
   75MOL   H11123939   5.937   6.954   4.260  2.7994 -1.2459  1.4044
   75MOL   H11223940   6.186   6.906   4.266  0.4817  0.3597 -0.8541
   75MOL   H11323941   6.261   6.782   4.353 -0.2995  1.5881  0.2289
   75MOL   C11423942   6.337   6.792   4.161  0.2113 -0.0734 -0.0686
   75MOL   C11523943   6.424   6.672   4.180  0.0790 -0.2440  0.0009
   75MOL   C11623944   6.376   6.538   4.168 -0.3976 -1.3080 -0.2779
   75MOL   C11723945   6.468   6.437   4.194 -0.6229  0.0976 -0.1304
   75MOL  Cl11823946   6.428   6.271   4.169 -0.2382  0.2648  0.0988
   75MOL   C11923947   6.603   6.466   4.230 -0.4617 -0.0055  0.2208
   75MOL   C12023948   6.646   6.595   4.231 -0.5343  0.9152  0.0053
   75MOL   C12123949   6.562   6.701   4.206  0.0594  0.5921 -0.3207
   75MOL   C12223950   6.301   6.811   4.016  0.1935  0.2979  0.0434
   75MOL   H12323951   6.401   6.879   4.175 -1.0442  1.2760 -2.5198
   75MOL   H12423952   6.276   6.514   4.137 -0.4464  1.2054 -2.2231
   75MOL   H12523953   6.671   6.382   4.233 -0.9149 -0.4966 -2.4382
   75MOL   H12623954   6.745   6.619   4.269  1.0191 -1.7479 -2.1529
   75MOL   H12723955   6.591   6.804   4.219  0.7969  0.2919  0.4648
   75MOL   H12823956   6.389   6.790   3.955 -1.0703 -0.9248 -1.3841
   75MOL   H12923957   6.233   6.729   3.993 -0.6609  0.4135  2.0723
   75MOL   C13023958   6.257   6.945   3.961 -0.0424  0.0980 -0.2606
   75MOL   C13123959   6.373   7.045   3.962 -0.1291 -0.4515 -0.2045
   75MOL   C13223960   6.470   7.040   3.862 -0.6941  0.2287  0.2822
   75MOL   C13323961   6.580   7.134   3.871  0.0409 -0.0064 -0.5607
   75MOL  Cl13423962   6.708   7.130   3.757  0.2150 -0.0493  0.1377
   75MOL   C13523963   6.576   7.240   3.970 -0.1891  0.2025  0.0177
   75MOL   C13623964   6.482   7.230   4.080 -0.7611 -0.2503  0.2654
   75MOL   C13723965   6.386   7.129   4.075 -0.1030 -0.0429  0.3947
   75MOL   C13823966   6.193   6.934   3.821 -0.3578  0.6267 -0.1165
   75MOL   H13923967   6.176   6.990   4.018  0.1463 -0.1008  0.1677
   75MOL   H14023968   6.463   6.958   3.793  3.7776  0.9213 -1.1606
   75MOL   H14123969   6.651   7.317   3.968 -1.0949  1.0923 -0.0340
   75MOL   H14223970   6.494   7.292   4.168  1.9705 -0.6077  0.1872
   75MOL   H14323971   6.315   7.127   4.156 -0.1237 -1.3842  0.3602
   75MOL   H14423972   6.259   6.884   3.750 -1.0783 -1.1730  0.4586
   75MOL   H14523973   6.106   6.868   3.825 -1.3941  1.9560 -0.0836
   75MOL   C14623974   6.152   7.066   3.756  0.2873 -0.0927  0.4372
   75MOL   C14723975   6.101   7.038   3.617 -0.1231 -0.0550  0.1110
   75MOL   C14823976   5.981   6.968   3.594  0.8157  0.2710  0.5571
   75MOL   C14923977   5.925   6.955   3.469  0.0527  0.1111 -0.0516
   75MOL  Cl15023978   5.777   6.872   3.461 -0.1262 -0.1831  0.0153
   75MOL   C15123979   5.986   7.015   3.358 -0.7404  0.8370  0.0859
   75MOL   C15223980   6.109   7.090   3.378  0.3435 -0.2013  0.7816
   75MOL   C15323981   6.163   7.100   3.504 -0.1505 -0.1487 -0.3572
   75MOL   C15423982   6.056   7.154   3.843  0.2125 -0.8431  0.2964
   75MOL   H15523983   6.242   7.124   3.732 -1.8863  2.2495 -2.4799
   75MOL   H15623984   5.938   6.934   3.687  2.3505 -0.3604  1.0539
   75MOL   H15723985   5.945   7.006   3.259 -0.3949 -0.9105  0.0910
   75MOL   H15823986   6.160   7.136   3.295 -0.7884 -0.2845  0.0292
   75MOL   H15923987   6.252   7.158   3.525 -0.1850 -0.6486  1.2596
   75MOL   H16023988   5.974   7.084   3.861  0.4700 -1.0606  0.6242
   75MOL   H16123989   6.092   7.178   3.943  0.7593  0.7977 -0.2911
   75MOL   C16223990   5.996   7.283   3.783 -0.0515 -0.1442  0.4674
   75MOL   C16323991   5.856   7.306   3.847 -0.3088  0.4372  0.0642
   75MOL   C16423992   5.745   7.250   3.781 -0.6703 -0.1163  0.1686
   75MOL   C16523993   5.613   7.278   3.825 -0.3651 -0.3818  0.3895
   75MOL  Cl16623994   5.480   7.239   3.724  0.1301  0.3137 -0.0028
   75MOL   C16723995   5.599   7.332   3.956  0.6526 -0.2066 -0.5138
   75MOL   C16823996   5.710   7.364   4.037 -0.5827  0.5578  0.4990
   75MOL   C16923997   5.836   7.356   3.980  0.4651  1.0520 -0.1689
   75MOL   C17023998   6.098   7.399   3.802  0.1721 -0.3127  0.4084
   75MOL   H17123999   5.981   7.288   3.675 -0.7636 -1.7497  0.4692
   75MOL   H17224000   5.750   7.197   3.687 -0.5587  0.0692  0.0710
   75MOL   H17324001   5.497   7.349   3.989  0.8323  0.1491 -0.1450
   75MOL   H17424002   5.698   7.399   4.138 -1.4001  0.3639  0.4680
   75MOL   H17524003   5.919   7.396   4.036  0.8961 -0.0489  0.0108
   75MOL   H17624004   6.102   7.441   3.902 -0.4064 -0.1951  0.3857
   75MOL   H17724005   6.193   7.347   3.797  0.8161  0.8752  0.0407
   75MOL   C17824006   6.088   7.515   3.700 -0.0360  0.4867  0.3063
   75MOL   C17924007   5.961   7.598   3.719 -0.2710  0.1542  0.6391
   75MOL   C18024008   5.931   7.650   3.845  0.3382  0.3085 -0.9714
   75MOL   C18124009   5.811   7.724   3.864 -0.3929  0.5277 -0.4340
   75MOL  Cl18224010   5.764   7.766   4.024 -0.3038 -0.2157 -0.1784
   75MOL   C18324011   5.735   7.772   3.751 -0.9498  0.8778 -0.4664
   75MOL   C18424012   5.772   7.720   3.624 -0.2564 -0.0012  0.3509
   75MOL   C18524013   5.885   7.636   3.608  0.8175 -0.0066  0.0750
   75MOL   C18624014   6.207   7.604   3.708  0.4906  0.1004  0.5288
   75MOL   H18724015   6.079   7.464   3.604 -1.6328  0.0232  0.6830
   75MOL   H18824016   5.987   7.624   3.933 -0.1082 -1.4496 -1.1919
   75MOL   H18924017   5.651   7.838   3.767  0.5396  3.2227 -2.0769
   75MOL   H19024018   5.709   7.731   3.536  2.0475 -0.0678 -1.3609
   75MOL   H19124019   5.906   7.594   3.510  0.4585  0.2267 -0.1052
   75MOL   H19224020   6.197   7.693   3.645  2.7096 -1.1977 -1.7456
   75MOL   H19324021   6.209   7.647   3.808  1.4099  0.9015  0.1828
   75MOL   C19424022   6.341   7.543   3.677  0.4968 -0.2335 -0.3751
   75MOL   C19524023   6.343   7.461   3.544 -0.8798  0.3504 -0.2786
   75MOL   C19624024   6.265   7.497   3.433 -0.4245 -0.3879 -0.4197
   75MOL   C19724025   6.273   7.424   3.310 -0.4543 -1.0205  0.2822
   75MOL  Cl19824026   6.183   7.485   3.168 -0.0206 -0.1604  0.1267
   75MOL   C19924027   6.372   7.326   3.301  0.3070  1.0285  0.2491
   75MOL   C20024028   6.458   7.290   3.406  0.6890  0.6841 -0.1704
   75MOL   C20124029   6.438   7.355   3.528  0.3545 -0.0380  0.7464
   75MOL   C20224030   6.456   7.641   3.687 -0.6538  0.1815 -0.2673
   75MOL   H20324031   6.364   7.473   3.758 -1.5763 -0.9046 -0.3204
   75MOL   H20424032   6.190   7.574   3.444  0.5832  0.3628  1.4448
   75MOL   H20524033   6.385   7.276   3.206  0.4276  0.5067  0.5355
   75MOL   H20624034   6.532   7.214   3.389 -0.6847 -0.9022  0.7672
   75MOL   H20724035   6.490   7.333   3.620  0.2331 -0.6597  0.6653
   75MOL   H20824036   6.429   7.711   3.766 -1.1113  0.3128 -0.5400
   75MOL   H20924037   6.552   7.600   3.719  0.5011  1.8694 -1.4252
   75MOL   C21024038   6.508   7.731   3.574  0.1587 -0.0650  0.6801
   75MOL   C21124039   6.571   7.656   3.454  0.5806  0.2019  0.0728
   75MOL   C21224040   6.697   7.590   3.467  0.1424  0.5121  1.0273
   75MOL   C21324041   6.750   7.519   3.354  0.1605 -0.1204 -1.3388
   75MOL  Cl21424042   6.883   7.410   3.372 -0.3225 -0.2778 -0.5542
   75MOL   C21524043   6.677   7.522   3.233 -0.3471  0.5261  0.5780
   75MOL   C21624044   6.562   7.596   3.220  0.6620 -0.1067 -0.9843
   75MOL   C21724045   6.503   7.664   3.330  0.8097  1.0097 -0.7178
   75MOL   C21824046   6.401   7.844   3.546 -0.2233  0.5862 -0.4428
   75MOL   H21924047   6.597   7.783   3.611 -0.6147  0.2964  2.0762
   75MOL   H22024048   6.740   7.582   3.565  2.0183  1.4178  0.2947
   75MOL   H22124049   6.719   7.471   3.148  1.4821  0.9008  1.2108
   75MOL   H22224050   6.507   7.615   3.129 -0.5403  1.8078  0.1066
   75MOL   H22324051   6.402   7.703   3.326  0.3523 -0.0493  0.1615
   75MOL   H22424052   6.325   7.790   3.490 -0.2657  0.3853 -0.1949
   75MOL   H22524053   6.346   7.882   3.632 -0.2660 -1.9993  0.7369
   75MOL   C22624054   6.430   7.961   3.454  0.1996  0.0941  0.7663
   75MOL   C22724055   6.308   8.012   3.374 -0.1401 -0.0930  0.1452
   75MOL   C22824056   6.196   8.065   3.450 -0.2285 -0.2237 -0.1775
   75MOL   C22924057   6.078   8.107   3.388  0.0728  0.2859 -0.6250
   75MOL  Cl23024058   5.949   8.169   3.483  0.7821 -0.2058 -0.1405
   75MOL   C23124059   6.073   8.094   3.245 -0.0456  0.0071  0.0997
   75MOL   C23224060   6.181   8.047   3.174  0.4256  0.1962 -0.0887
   75MOL   C23324061   6.293   7.998   3.236  0.2968  0.1378 -0.0090
   75MOL   C23424062   6.485   8.077   3.535 -0.8790 -0.2151 -0.0563
   75MOL   H23524063   6.503   7.934   3.378  0.8920  0.9831  1.1063
   75MOL   H23624064   6.203   8.073   3.558 -1.2379  2.4139 -0.2784
   75MOL   H23724065   5.990   8.125   3.183  0.5379  0.5572 -0.4136
   75MOL   H23824066   6.163   8.039   3.068 -1.3836 -2.2017  0.3545
   75MOL   H23924067   6.381   7.967   3.181  1.0432  2.5817 -0.2629
   75MOL   H24024068   6.414   8.122   3.603  1.0712  1.7971  0.7353
   75MOL   H24124069   6.550   8.049   3.618  0.0635 -0.7925 -0.9693
   75MOL   C24224070   6.548   8.191   3.457 -0.2079  0.2149  0.2403
   75MOL   C24324071   6.535   8.319   3.535  0.2405  0.6578  0.1603
   75MOL   C24424072   6.434   8.414   3.500 -0.1236 -0.0018  0.0206
   75MOL   C24524073   6.404   0.087   3.573 -0.3989 -0.9291 -0.0603
   75MOL  Cl24624074   6.276   0.187   3.521  0.1786  0.2192  0.2597
   75MOL   C24724075   6.479   0.112   3.686  0.3250 -0.5931 -0.8999
   75MOL   C24824076   6.579   0.023   3.724  0.1885  0.3944  0.4730
   75MOL   C24924077   6.604   8.338   3.653 -0.6831  0.7508  0.1893
   75MOL   C25024078   6.693   8.156   3.413 -0.7267  0.4278 -0.5135
   75MOL   H25124079   6.491   8.201   3.365 -1.4176  2.5238  1.1883
   75MOL   H25224080   6.372   8.391   3.414  1.5066  1.9110 -1.7216
   75MOL   H25324081   6.449   0.199   3.744 -1.2735  0.0278 -2.6020
   75MOL   H25424082   6.626   0.044   3.819  0.3854 -0.7661  0.6320
   75MOL   H25524083   6.692   8.279   3.677 -2.2531  0.4873  6.2167
   75MOL   H25624084   6.767   8.195   3.482  1.6027  1.4259 -3.4848
   75MOL   H25724085   6.706   8.048   3.404 -0.1870  0.6079 -1.9548
   75MOL   C25824086   6.736   8.220   3.281 -0.2647  0.1800  0.0445
   75MOL   C25924087   6.887   8.238   3.282  0.3810  0.3401 -0.7073
   75MOL   C26024088   6.979   8.126   3.298  0.4573 -0.0720  0.0075
   75MOL   C26124089   7.115   8.146   3.305  0.5931  0.4377  0.0939
   75MOL  Cl26224090   7.223   8.013   3.340  0.3453  0.0883  0.3965
   75MOL   C26324091   7.164   8.280   3.295 -0.1746 -0.1721 -0.0642
   75MOL   C26424092   7.078   8.389   3.289 -0.4998  0.0422  0.9869
   75MOL   C26524093   6.943   8.367   3.274 -0.4913  0.0253 -0.7776
   75MOL   C26624094   6.674   8.149   3.155 -0.3685  0.6703 -1.2261
   75MOL   H26724095   6.694   8.320   3.291 -0.3753  0.3513 -1.8411
   75MOL   H26824096   6.945   8.025   3.314 -0.5665  0.4090  0.9234
   75MOL   H26924097   7.272   8.291   3.291 -0.0757 -1.7187 -2.5395
   75MOL   H27024098   7.119   0.054   3.286 -0.3635 -0.0257  0.5715
   75MOL   H27124099   6.879   0.018   3.263 -1.5090 -0.3595  1.6486
   75MOL   H27224100   6.751   8.095   3.100 -0.8445  1.2029 -2.4305
   75MOL   H27324101   6.600   8.081   3.196  3.0498 -0.6183  3.2531
   75MOL   C27424102   6.608   8.239   3.054  0.1178  0.5139 -0.5168
   75MOL   C27524103   6.690   8.359   3.010  0.7222  0.2214 -0.0871
   75MOL   C27624104   6.799   8.342   2.922  0.2368 -0.7587  0.7114
   75MOL   C27724105   6.886   0.013   2.886  0.4905 -0.5109  0.3324
   75MOL  Cl27824106   7.004   8.433   2.761 -0.2488 -0.2192 -0.1100
   75MOL   C27924107   6.869   0.137   2.950 -0.7111  0.0302  0.8557
   75MOL   C28024108   6.760   0.155   3.042  1.1143 -0.1784  0.1605
   75MOL   C28124109   6.667   0.049   3.064 -0.1958  0.3685 -0.3834
   75MOL   C28224110   6.547   8.162   2.939 -0.4558  0.1101 -0.5930
   75MOL   H28324111   6.528   8.280   3.115 -2.3098 -1.7388 -2.0470
   75MOL   H28424112   6.815   8.249   2.870 -1.5644 -1.0751  0.7037
   75MOL   H28524113   6.940   0.217   2.936  1.3433 -1.7756  0.6897
   75MOL   H28624114   6.746   0.254   3.083  0.6957 -0.2199  0.1168
   75MOL   H28724115   6.586   0.076   3.130 -0.2801  0.6256 -0.5907
   75MOL   H28824116   6.631   8.110   2.892  0.7385 -0.3946  1.9871
   75MOL   H28924117   6.479   8.081   2.967  2.1169 -1.1736  2.2179
   75MOL   C29024118   6.472   8.235   2.835  0.3880 -0.0828 -0.0894
   75MOL   C29124119   6.494   8.164   2.698  0.1999 -0.0533 -0.4661
   75MOL   C29224120   6.524   8.243   2.588 -0.3346 -0.5548 -0.2680
   75MOL   C29324121   6.522   8.183   2.461  0.1535 -0.1776  0.0078
   75MOL  Cl29424122   6.553   8.276   2.321  0.0360  0.3083 -0.4811
   75MOL   C29524123   6.496   8.044   2.451  0.2372  0.6627 -0.3491
   75MOL   C29624124   6.480   7.965   2.562 -0.5073  0.9356 -0.5455
   75MOL   C29724125   6.464   8.028   2.684  0.0101  0.0253  0.1540
   75MOL   C29824126   6.313   8.246   2.856  0.7189  0.2607 -0.0366
   75MOL   H29924127   6.511   8.336   2.830 -2.4324  1.0749  0.7156
   75MOL   H30024128   6.529   8.351   2.601 -1.4921 -0.7359  1.7964
   75MOL   H30124129   6.489   8.000   2.353  0.5275 -4.9345  1.9794
   75MOL   H30224130   6.456   7.860   2.556  1.9695  0.2597  0.8765
   75MOL   H30324131   6.424   7.973   2.768 -0.5922 -0.3792 -0.3874
   75MOL   H30424132   6.269   8.147   2.857  1.7169 -0.1798  1.9778
   75MOL   H30524133   6.304   8.288   2.956 -2.3402 -1.8369  0.6217
   75MOL   C30624134   6.245   8.335   2.754 -0.0060 -0.2437 -0.0781
   75MOL   C30724135   6.097   8.353   2.781 -0.6831  0.2663  0.2229
   75MOL   C30824136   6.037   8.376   2.910  0.0406  0.2008 -0.0861
   75MOL   C30924137   5.904   8.402   2.924 -0.2899 -0.0300 -0.0686
   75MOL  Cl31024138   5.838   0.007   3.078 -0.1536  0.2114 -0.0471
   75MOL   C31124139   5.818   8.400   2.811 -1.2528 -0.1371  0.7214
   75MOL   C31224140   5.877   8.380   2.682  0.7347 -0.7258  0.2153
   75MOL   C31324141   6.014   8.355   2.669  0.0584 -0.4866  0.5742
   75MOL   C31424142   6.303   0.035   2.729 -0.2321  0.1642  0.1360
   75MOL   H31524143   6.247   8.274   2.664 -2.4347  0.4442 -0.6305
   75MOL   H31624144   6.100   8.366   2.998  0.3500  0.4387 -0.2804
   75MOL   H31724145   5.712   8.418   2.815 -0.9973  1.4556  1.0192
   75MOL   H31824146   5.816   8.376   2.593 -1.4036  1.1517  1.5325
   75MOL   H31924147   6.047   8.332   2.569 -1.2537  0.6673 -0.1364
   75MOL   H32024148   6.265   0.089   2.641 -0.1151  0.0594  0.0218
   75MOL   H32124149   6.287   0.096   2.818 -0.6137  0.5765 -0.2091
   75MOL   H32224150   6.408   0.032   2.700 -0.3719 -2.2178 -0.1757
   76MOL     C124151   5.263   3.346   1.579  0.1530  0.6370  0.3358
   76MOL     C224152   5.127   3.288   1.557 -0.0006  0.2849  0.0228
   76MOL     C324153   5.014   3.350   1.616 -0.2593  0.3107  0.0896
   76MOL     C424154   4.887   3.297   1.585  0.1288  0.1596  0.2910
   76MOL    Cl524155   4.743   3.360   1.665  0.4247  0.5496  0.3616
   76MOL     C624156   4.866   3.193   1.498 -0.5517  0.8066 -0.0047
   76MOL     C724157   4.978   3.120   1.450 -0.0707  0.5107 -0.2020
   76MOL     C824158   5.107   3.173   1.474  0.3292 -0.0236  0.2615
   76MOL     C924159   5.324   3.312   1.718 -0.0866 -0.0075 -0.5771
   76MOL    H1024160   5.259   3.453   1.562  0.0959  0.6605  0.4932
   76MOL    H1124161   5.029   3.434   1.683 -1.3530  0.7706 -0.2426
   76MOL    H1224162   4.764   3.162   1.482 -0.5273  0.8003 -0.1509
   76MOL    H1324163   4.964   3.022   1.406 -0.6570  1.3234 -1.8877
   76MOL    H1424164   5.193   3.117   1.440 -0.6360  0.2110 -2.6654
   76MOL    H1524165   5.403   3.384   1.742  0.3946 -1.4054  2.1930
   76MOL    H1624166   5.241   3.321   1.787  0.8141  1.1817  0.3615
   76MOL    H1724167   5.328   3.315   1.497  0.4218  1.7658  0.1182
   76MOL    C1824168   5.390   3.175   1.737  0.1457  0.0767  0.3948
   76MOL    C1924169   5.531   3.172   1.673  1.3834 -0.1501 -1.1208
   76MOL    C2024170   5.643   3.242   1.720  0.3762 -0.0544  0.2492
   76MOL    C2124171   5.761   3.250   1.647 -0.0717 -0.3402  0.2354
   76MOL   Cl2224172   5.887   3.347   1.715 -0.3821  0.1099 -0.1919
   76MOL    C2324173   5.774   3.175   1.531 -1.5781  1.3597  0.3361
   76MOL    C2424174   5.665   3.085   1.497  0.3917  0.4562 -0.4448
   76MOL    C2524175   5.540   3.099   1.554  0.7215  0.3487  0.4069
   76MOL    C2624176   5.406   3.115   1.885  0.0266 -0.1158  0.7432
   76MOL    H2724177   5.326   3.103   1.685  0.0346  1.5779 -1.5739
   76MOL    H2824178   5.639   3.288   1.817  2.2944 -1.5579  1.0617
   76MOL    H2924179   5.874   3.172   1.490 -2.1106 -0.8096 -0.9148
   76MOL    H3024180   5.690   3.005   1.430  2.2541  1.7540 -1.3335
   76MOL    H3124181   5.452   3.039   1.531  1.1206 -0.1340  0.1289
   76MOL    H3224182   5.479   3.035   1.894 -0.4897 -1.0455 -2.5990
   76MOL    H3324183   5.436   3.200   1.946 -0.1927 -0.1015  0.8315
   76MOL    C3424184   5.273   3.067   1.942  0.8251  0.7087 -0.0195
   76MOL    C3524185   5.238   2.932   1.891 -0.5437 -0.4111  0.2391
   76MOL    C3624186   5.139   2.922   1.790  0.2637  0.1498 -0.5759
   76MOL    C3724187   5.085   2.796   1.758 -0.1872 -0.0378  0.3354
   76MOL   Cl3824188   4.973   2.762   1.632 -0.2949 -0.3849  0.0658
   76MOL    C3924189   5.127   2.684   1.829 -0.4435 -1.0774  0.5176
   76MOL    C4024190   5.233   2.692   1.916  0.2372  0.1093  0.1902
   76MOL    C4124191   5.288   2.813   1.950 -0.0919 -0.6860  0.5056
   76MOL    C4224192   5.278   3.077   2.093  0.2364  0.3635 -0.2865
   76MOL    H4324193   5.202   3.140   1.903  0.5341 -0.2573 -1.3259
   76MOL    H4424194   5.105   3.015   1.747  0.0679 -0.6814 -2.2816
   76MOL    H4524195   5.082   2.591   1.798  1.4467 -2.1645  1.0223
   76MOL    H4624196   5.266   2.601   1.965 -0.1507  0.3783  0.9502
   76MOL    H4724197   5.372   2.814   2.018 -1.3533 -1.3838  2.1115
   76MOL    H4824198   5.361   3.018   2.133  0.5412  1.2471  0.3820
   76MOL    H4924199   5.298   3.181   2.119 -0.2612  0.4633 -0.3036
   76MOL    C5024200   5.152   3.058   2.181  0.4267  0.1703 -0.4474
   76MOL    C5124201   5.036   3.145   2.127 -0.1058 -0.1563 -0.2676
   76MOL    C5224202   4.947   3.101   2.028  0.3641 -0.2344  1.0587
   76MOL    C5324203   4.834   3.173   1.984  0.1867 -0.3293 -0.3541
   76MOL   Cl5424204   4.735   3.102   1.865  0.0258 -0.2865 -0.0620
   76MOL    C5524205   4.802   3.297   2.046  1.0829  0.1466 -0.5178
   76MOL    C5624206   4.895   3.347   2.144  0.4692  0.2568  0.4390
   76MOL    C5724207   5.011   3.276   2.178 -0.3253  0.4868 -0.4882
   76MOL    C5824208   5.115   2.912   2.202  0.4064  0.2899  0.2534
   76MOL    H5924209   5.182   3.091   2.281  2.9646 -1.0356 -0.7637
   76MOL    H6024210   4.961   3.009   1.974 -2.3877  0.2190 -0.4812
   76MOL    H6124211   4.716   3.360   2.030  1.0240  0.6486  1.5499
   76MOL    H6224212   4.876   3.442   2.191  0.9979  0.4668  0.2314
   76MOL    H6324213   5.069   3.328   2.252 -1.8234  2.2000 -0.4877
   76MOL    H6424214   5.016   2.924   2.245  2.5964 -1.0991  6.1465
   76MOL    H6524215   5.098   2.846   2.117  0.7740  0.7218 -0.1580
   76MOL    C6624216   5.183   2.837   2.317  0.4476 -0.7264  0.8266
   76MOL    C6724217   5.089   2.730   2.380 -0.1649 -0.1932  0.9480
   76MOL    C6824218   5.046   2.745   2.512  0.4518  0.2017 -0.6438
   76MOL    C6924219   4.942   2.667   2.562  0.3602 -0.0084 -0.7613
   76MOL   Cl7024220   4.877   2.684   2.721 -0.2166 -0.1823 -0.1904
   76MOL    C7124221   4.886   2.558   2.489  0.5881 -0.7699 -0.1655
   76MOL    C7224222   4.947   2.526   2.367 -0.0121 -0.0559  0.6007
   76MOL    C7324223   5.042   2.611   2.309 -0.3046  0.1009 -0.5346
   76MOL    C7424224   5.317   2.769   2.279  0.1350  0.4617  0.2365
   76MOL    H7524225   5.204   2.910   2.395 -3.0231 -0.7656  1.8464
   76MOL    H7624226   5.081   2.827   2.573 -0.8495  1.5683 -1.7163
   76MOL    H7724227   4.811   2.497   2.536  1.1817 -0.6263  0.9837
   76MOL    H7824228   4.915   2.446   2.303  1.3593 -0.1687  0.0402
   76MOL    H7924229   5.079   2.579   2.213  1.4042  0.4493 -0.0100
   76MOL    H8024230   5.292   2.709   2.192  0.5758  1.2367 -0.4240
   76MOL    H8124231   5.392   2.844   2.256 -0.6123  0.7224 -1.3666
   76MOL    C8224232   5.379   2.665   2.377 -0.0575 -0.9965  0.0774
   76MOL    C8324233   5.442   2.545   2.298  0.5428 -0.1947 -0.5493
   76MOL    C8424234   5.571   2.556   2.241 -0.0654 -0.2072  0.1085
   76MOL    C8524235   5.618   2.451   2.168 -0.3062 -0.6422  0.2844
   76MOL   Cl8624236   5.779   2.455   2.109  0.3677  0.1975  0.0915
   76MOL    C8724237   5.539   2.342   2.132 -0.0869 -0.3927 -0.2406
   76MOL    C8824238   5.408   2.329   2.180 -0.2167 -0.7702 -0.3222
   76MOL    C8924239   5.357   2.432   2.266 -0.3416  0.8860 -0.2446
   76MOL    C9024240   5.488   2.741   2.464  0.6191  0.3084  0.3388
   76MOL    H9124241   5.302   2.617   2.436 -3.5221  2.0656 -1.7517
   76MOL    H9224242   5.645   2.635   2.241 -0.0163 -0.2503 -0.7957
   76MOL    H9324243   5.583   2.275   2.060 -2.2709 -2.9363  0.6930
   76MOL    H9424244   5.348   2.250   2.138 -0.8521 -0.3504 -0.2069
   76MOL    H9524245   5.256   2.417   2.303 -0.1075  1.4166  0.6377
   76MOL    H9624246   5.572   2.775   2.404 -0.1333 -0.6103 -1.2919
   76MOL    H9724247   5.452   2.839   2.493  1.5445  1.4902 -2.4005
   76MOL    C9824248   5.543   2.661   2.592  0.7507  0.3828  0.7382
   76MOL    C9924249   5.424   2.614   2.683 -0.1019 -0.4153 -0.1275
   76MOL   C10024250   5.369   2.699   2.784  0.4412 -0.6544 -0.3900
   76MOL   C10124251   5.268   2.659   2.873  0.7899  0.6118  0.2327
   76MOL  Cl10224252   5.203   2.757   3.002 -0.1903  0.3635 -0.4216
   76MOL   C10324253   5.215   2.528   2.851 -0.2090 -0.3034 -0.2989
   76MOL   C10424254   5.265   2.443   2.753 -0.1606 -0.2003 -0.7256
   76MOL   C10524255   5.372   2.483   2.661  0.9039 -0.4513 -0.4518
   76MOL   C10624256   5.653   2.550   2.577  0.0337 -0.8256  0.8789
   76MOL   H10724257   5.582   2.743   2.653  0.4684 -0.2437  1.7711
   76MOL   H10824258   5.422   2.793   2.792 -1.1683  0.2815 -0.5702
   76MOL   H10924259   5.129   2.495   2.909  0.1845 -3.1195 -1.2435
   76MOL   H11024260   5.220   2.344   2.751 -0.4133 -0.1139  0.2862
   76MOL   H11124261   5.394   2.424   2.573 -0.5557 -2.1852  0.3344
   76MOL   H11224262   5.670   2.506   2.676  1.3505  1.9594  1.9327
   76MOL   H11324263   5.613   2.472   2.512 -0.5750  0.7078 -0.5892
   76MOL   C11424264   5.792   2.589   2.539 -0.0685 -0.0494 -0.1329
   76MOL   C11524265   5.842   2.712   2.620 -0.1565 -0.6117 -0.5181
   76MOL   C11624266   5.856   2.837   2.556 -0.2454  0.5328 -0.6587
   76MOL   C11724267   5.877   2.958   2.633 -0.0464  0.0034 -0.1520
   76MOL  Cl11824268   5.883   3.109   2.552  0.3901 -0.0458 -0.4973
   76MOL   C11924269   5.900   2.946   2.769  0.2137 -0.1609  0.0543
   76MOL   C12024270   5.893   2.823   2.835  0.2696  0.9980 -0.2902
   76MOL   C12124271   5.862   2.707   2.763 -0.5952  0.3826  1.0332
   76MOL   C12224272   5.899   2.479   2.553  0.2577  0.3586 -0.3890
   76MOL   H12324273   5.789   2.610   2.432  1.8144 -1.1004 -0.4122
   76MOL   H12424274   5.841   2.835   2.449 -2.5156 -1.3610 -0.3512
   76MOL   H12524275   5.933   3.031   2.827  0.0638  0.6700 -1.0722
   76MOL   H12624276   5.905   2.813   2.942 -0.8859  1.1722 -0.1324
   76MOL   H12724277   5.860   2.611   2.813 -1.1055 -0.2000 -0.0861
   76MOL   H12824278   5.948   2.482   2.650  1.6613  1.1436 -1.0919
   76MOL   H12924279   5.842   2.387   2.567 -0.7473  0.9748 -0.4314
   76MOL   C13024280   5.996   2.452   2.438  0.5526  0.3841 -0.5197
   76MOL   C13124281   6.103   2.560   2.417 -0.2159 -0.9762  0.3451
   76MOL   C13224282   6.129   2.615   2.289  1.0000 -0.1852  0.3310
   76MOL   C13324283   6.230   2.714   2.284 -0.3819  0.1939  0.5919
   76MOL  Cl13424284   6.285   2.765   2.123  0.1122 -0.0503  0.2346
   76MOL   C13524285   6.303   2.759   2.396  0.4231  0.3812 -0.0940
   76MOL   C13624286   6.266   2.699   2.523 -0.2403  0.8134  0.0364
   76MOL   C13724287   6.165   2.604   2.535 -0.1298 -0.3042  0.3497
   76MOL   C13824288   6.054   2.309   2.454  0.4870  0.7519  0.6628
   76MOL   H13924289   5.925   2.440   2.356  0.7915  1.3411 -0.8702
   76MOL   H14024290   6.076   2.574   2.204  1.4765 -1.7188  0.7459
   76MOL   H14124291   6.384   2.825   2.370  1.2578 -1.4608 -2.3426
   76MOL   H14224292   6.329   2.733   2.603 -1.3118 -2.3514  2.3317
   76MOL   H14324293   6.147   2.557   2.630 -4.2036 -0.3695 -0.3856
   76MOL   H14424294   6.083   2.303   2.559 -1.1895  3.6527  1.3659
   76MOL   H14524295   5.973   2.236   2.445  2.1201 -1.2452  1.7370
   76MOL   C14624296   6.163   2.262   2.357  0.8396 -0.1328 -0.5436
   76MOL   C14724297   6.228   2.140   2.417  0.5693  0.0865  0.1430
   76MOL   C14824298   6.161   2.016   2.415 -0.4269  0.3621 -0.7133
   76MOL   C14924299   6.222   1.905   2.479 -0.6668 -0.9531 -0.1614
   76MOL  Cl15024300   6.132   1.758   2.499 -0.7081 -0.3376  0.4069
   76MOL   C15124301   6.349   1.914   2.537 -0.8362  0.0622 -0.6943
   76MOL   C15224302   6.411   2.042   2.549  0.0476  0.0896  0.1306
   76MOL   C15324303   6.351   2.150   2.485 -0.2930  0.4222  0.4846
   76MOL   C15424304   6.101   2.253   2.217  0.5099 -0.1230  0.0207
   76MOL   H15524305   6.234   2.345   2.353 -0.1181  0.8818  2.4468
   76MOL   H15624306   6.060   2.013   2.376 -0.7509 -0.1085  0.1466
   76MOL   H15724307   6.397   1.835   2.593 -0.6281  0.3785 -0.4284
   76MOL   H15824308   6.510   2.053   2.590  0.3321 -1.7325 -0.0086
   76MOL   H15924309   6.402   2.244   2.501  0.9490 -0.2088  0.3222
   76MOL   H16024310   6.023   2.177   2.212  0.2084  0.2874 -1.8701
   76MOL   H16124311   6.054   2.344   2.181  0.0337 -0.5015 -0.3223
   76MOL   C16224312   6.199   2.218   2.106 -0.3004  0.6803  0.1299
   76MOL   C16324313   6.233   2.068   2.098  0.4514 -0.6394 -0.7072
   76MOL   C16424314   6.369   2.031   2.127  0.1402  0.5252 -0.1199
   76MOL   C16524315   6.408   1.894   2.131  0.2049  0.2655  0.0397
   76MOL  Cl16624316   6.567   1.841   2.158 -0.1706 -0.0433  0.0851
   76MOL   C16724317   6.310   1.799   2.114  0.1729  0.0004 -1.1228
   76MOL   C16824318   6.171   1.829   2.093  0.2520 -0.5419 -0.1628
   76MOL   C16924319   6.132   1.966   2.081 -0.4591  0.2380 -0.6728
   76MOL   C17024320   6.159   2.285   1.970  0.2788  0.2106 -0.0874
   76MOL   H17124321   6.288   2.271   2.140 -0.8022 -0.1445  2.8793
   76MOL   H17224322   6.439   2.112   2.139  0.8789 -0.0105 -0.7637
   76MOL   H17324323   6.333   1.694   2.118  1.2088  0.2701  0.0904
   76MOL   H17424324   6.098   1.751   2.080  0.4729 -0.6143 -1.0210
   76MOL   H17524325   6.027   1.990   2.069 -0.7395  0.6441  2.1673
   76MOL   H17624326   6.051   2.292   1.967  0.2044 -1.4877 -2.0582
   76MOL   H17724327   6.178   2.392   1.981  1.7372  0.2209 -2.3874
   76MOL   C17824328   6.218   2.229   1.831  0.6400 -0.3692  0.2377
   76MOL   C17924329   6.151   2.101   1.781  0.9716  0.3804  0.0915
   76MOL   C18024330   6.011   2.086   1.759 -0.0339 -0.4914 -0.6117
   76MOL   C18124331   5.955   1.967   1.706 -0.3373  0.6275 -0.1811
   76MOL  Cl18224332   5.793   1.962   1.648 -0.2563 -0.0205  0.0672
   76MOL   C18324333   6.039   1.859   1.680 -0.5375  0.2011 -0.4379
   76MOL   C18424334   6.183   1.871   1.709 -0.2424 -0.0935 -0.0687
   76MOL   C18524335   6.239   1.991   1.761  0.0561  0.1815  0.5673
   76MOL   C18624336   6.219   2.339   1.721  1.0380  0.0879 -0.4139
   76MOL   H18724337   6.322   2.196   1.843  0.5559 -1.3982 -1.6181
   76MOL   H18824338   5.947   2.173   1.768  0.2204 -0.3403 -0.2591
   76MOL   H18924339   6.006   1.778   1.617 -1.5043 -1.2527  1.8492
   76MOL   H19024340   6.249   1.790   1.682  2.4148  1.0924  2.6160
   76MOL   H19124341   6.344   1.996   1.786  0.4412  1.4600 -1.2148
   76MOL   H19224342   6.237   2.290   1.625  0.5884 -1.5254  0.3042
   76MOL   H19324343   6.117   2.376   1.715  0.7854 -0.4422  0.4434
   76MOL   C19424344   6.312   2.459   1.735 -0.2181 -0.1253  0.8775
   76MOL   C19524345   6.450   2.404   1.765  0.2756 -0.4813 -0.2052
   76MOL   C19624346   6.512   2.410   1.891  0.4761  1.4414 -0.1632
   76MOL   C19724347   6.641   2.360   1.913 -0.7769  0.4668 -0.2011
   76MOL  Cl19824348   6.709   2.353   2.075  0.2864 -0.0837 -0.2486
   76MOL   C19924349   6.707   2.290   1.804  0.2014 -0.5807 -0.8607
   76MOL   C20024350   6.645   2.291   1.682 -0.1542 -0.2581 -0.0400
   76MOL   C20124351   6.521   2.345   1.664 -0.0217  0.6228 -0.0787
   76MOL   C20224352   6.305   2.550   1.606  0.2376 -0.3820 -0.2343
   76MOL   H20324353   6.277   2.511   1.824  0.2011  1.3778  0.1775
   76MOL   H20424354   6.451   2.446   1.972  0.5316  3.2973 -0.9216
   76MOL   H20524355   6.799   2.236   1.823  1.2491  0.5765 -2.5067
   76MOL   H20624356   6.695   2.240   1.601  2.6261 -0.4914  1.7493
   76MOL   H20724357   6.474   2.338   1.567  0.0819  3.9236 -0.4037
   76MOL   H20824358   6.338   2.495   1.518  0.3262 -0.0076 -0.4382
   76MOL   H20924359   6.199   2.563   1.583  1.1252  4.0444 -2.5329
   76MOL   C21024360   6.374   2.680   1.624  1.1543 -0.5518 -0.1404
   76MOL   C21124361   6.400   2.752   1.490 -0.1416 -0.3491 -0.1487
   76MOL   C21224362   6.299   2.771   1.396  0.6228  0.3501 -0.5363
   76MOL   C21324363   6.323   2.837   1.276  0.3022 -0.2607 -0.5092
   76MOL  Cl21424364   6.194   2.870   1.162 -0.0824 -0.3122  0.2745
   76MOL   C21524365   6.455   2.883   1.251 -0.3521 -0.1055 -0.3198
   76MOL   C21624366   6.558   2.861   1.341  0.1734  0.9078 -0.5180
   76MOL   C21724367   6.532   2.803   1.465 -0.0659 -0.0314 -0.2478
   76MOL   C21824368   6.311   2.777   1.731 -0.1600 -0.1568 -0.0351
   76MOL   H21924369   6.469   2.658   1.672  0.4727  3.9929  3.6830
   76MOL   H22024370   6.206   2.718   1.415  1.8391 -0.6439  2.9015
   76MOL   H22124371   6.471   2.934   1.157 -0.8470  1.7916  0.6044
   76MOL   H22224372   6.659   2.883   1.311  0.4212 -1.5910 -1.6876
   76MOL   H22324373   6.609   2.809   1.541  0.5366 -1.1947 -0.7562
   76MOL   H22424374   6.307   2.730   1.829  2.0759  0.8160  0.5531
   76MOL   H22524375   6.391   2.849   1.742 -0.0889 -0.2800  0.2610
   76MOL   C22624376   6.188   2.847   1.695 -0.5565 -0.3559  0.4425
   76MOL   C22724377   6.067   2.754   1.689 -0.8957  0.0893  0.1257
   76MOL   C22824378   5.987   2.739   1.569 -0.2782 -0.1794  0.8677
   76MOL   C22924379   5.880   2.647   1.564 -0.4147 -0.1241 -0.1960
   76MOL  Cl23024380   5.799   2.622   1.422  0.2846 -0.0910 -0.2416
   76MOL   C23124381   5.859   2.567   1.677 -0.4658  0.2530  0.6714
   76MOL   C23224382   5.939   2.581   1.791 -0.1642  0.3112 -0.0772
   76MOL   C23324383   6.037   2.680   1.803 -0.1365  0.1007  0.2662
   76MOL   C23424384   6.165   2.976   1.784  0.6511  0.1811  0.9456
   76MOL   H23524385   6.200   2.893   1.597  2.5733 -1.0173  0.4727
   76MOL   H23624386   5.999   2.815   1.493  0.9660 -0.9844  0.2381
   76MOL   H23724387   5.786   2.487   1.677 -1.3786  1.0763 -0.0120
   76MOL   H23824388   5.918   2.515   1.874  0.6470  0.5586  0.3303
   76MOL   H23924389   6.093   2.687   1.896 -0.3513  0.1794  0.3900
   76MOL   H24024390   6.066   3.007   1.752  0.0094 -1.6072  1.1042
   76MOL   H24124391   6.143   2.947   1.887 -0.8706  2.1670  1.2045
   76MOL   C24224392   6.267   3.100   1.791 -0.6860  0.2220 -0.1040
   76MOL   C24324393   6.316   3.138   1.648  0.7851 -0.7827 -0.5629
   76MOL   C24424394   6.229   3.184   1.557 -0.1726  0.0519  0.9107
   76MOL   C24524395   6.267   3.211   1.422 -0.0919 -0.0942 -0.1457
   76MOL  Cl24624396   6.150   3.260   1.302  0.4308  0.4082 -0.3766
   76MOL   C24724397   6.398   3.194   1.384  0.5982  0.1850  0.5579
   76MOL   C24824398   6.495   3.151   1.477 -0.0965 -0.5193 -0.2130
   76MOL   C24924399   6.451   3.124   1.606 -0.0236  0.3930 -0.5194
   76MOL   C25024400   6.209   3.210   1.876 -0.5285  0.4498  0.2167
   76MOL   H25124401   6.361   3.083   1.843  0.0292  2.8418 -0.4612
   76MOL   H25224402   6.123   3.181   1.577 -0.4997 -0.9780 -0.8994
   76MOL   H25324403   6.428   3.220   1.283 -0.3548  1.5014  0.6077
   76MOL   H25424404   6.598   3.139   1.446  0.9726  1.5478  2.2918
   76MOL   H25524405   6.533   3.111   1.675  0.5249  0.0633 -1.2279
   76MOL   H25624406   6.248   3.307   1.843 -0.0010 -0.4755 -1.9498
   76MOL   H25724407   6.104   3.218   1.848 -0.3063  1.5717 -0.3425
   76MOL   C25824408   6.230   3.181   2.034  0.0596 -0.4386  0.5122
   76MOL   C25924409   6.379   3.189   2.079 -0.3644 -0.2074  0.3419
   76MOL   C26024410   6.449   3.310   2.063 -0.1063  1.9157 -0.3366
   76MOL   C26124411   6.588   3.311   2.092 -0.6202 -0.2171 -0.2127
   76MOL  Cl26224412   6.673   3.454   2.073  0.1426 -0.0753  0.0036
   76MOL   C26324413   6.656   3.193   2.126 -0.5436  0.4990  0.6661
   76MOL   C26424414   6.582   3.073   2.153  0.6105 -0.1809  0.1781
   76MOL   C26524415   6.449   3.074   2.127 -0.2202  0.1938  0.2063
   76MOL   C26624416   6.144   3.275   2.122  0.7526  0.8611  0.6454
   76MOL   H26724417   6.206   3.077   2.056 -1.5082  0.2268  2.0793
   76MOL   H26824418   6.394   3.398   2.035  0.0930  2.0601 -0.2698
   76MOL   H26924419   6.761   3.205   2.149 -0.9600  0.6840  2.4866
   76MOL   H27024420   6.634   2.984   2.187 -2.6827 -1.9777  0.6799
   76MOL   H27124421   6.395   2.980   2.129  0.3180 -0.1121  0.2957
   76MOL   H27224422   6.171   3.267   2.227 -1.2473 -0.8351  1.0645
   76MOL   H27324423   6.176   3.373   2.086  0.6009 -0.6659 -4.0535
   76MOL   C27424424   5.990   3.252   2.112 -0.3075  0.1892  0.5633
   76MOL   C27524425   5.945   3.104   2.098  0.4005  0.2698  0.4232
   76MOL   C27624426   5.868   3.064   1.988  0.1196 -0.1728 -0.4187
   76MOL   C27724427   5.825   2.931   1.967  0.0605 -0.2181  0.3581
   76MOL  Cl27824428   5.751   2.894   1.820 -0.1111  0.1063 -0.1555
   76MOL   C27924429   5.860   2.833   2.059 -0.7058  0.2013 -0.9844
   76MOL   C28024430   5.935   2.873   2.173 -0.0750  0.0863 -0.2167
   76MOL   C28124431   5.990   3.004   2.188  0.2160  0.1547  0.0064
   76MOL   C28224432   5.920   3.322   2.232  0.7594  0.3720 -0.1656
   76MOL   H28324433   5.959   3.301   2.020 -1.7012 -0.3962  0.7076
   76MOL   H28424434   5.850   3.141   1.915  2.0302 -0.2299 -0.9979
   76MOL   H28524435   5.823   2.733   2.040  0.3285 -1.1745  3.5563
   76MOL   H28624436   5.966   2.799   2.245  0.4273  0.0960 -0.4204
   76MOL   H28724437   6.053   3.031   2.272 -2.6741  1.8503  1.6713
   76MOL   H28824438   5.819   3.280   2.222  0.6982  0.5169 -0.1538
   76MOL   H28924439   5.967   3.292   2.325  1.5988 -0.6770 -0.9117
   76MOL   C29024440   5.917   3.481   2.217  0.3666  0.4679  0.3138
   76MOL   C29124441   5.815   3.530   2.113 -0.0221 -0.0913  0.3585
   76MOL   C29224442   5.856   3.620   2.010 -0.2838  0.7124 -0.2474
   76MOL   C29324443   5.762   3.652   1.910 -0.8624  0.0509 -0.7273
   76MOL  Cl29424444   5.822   3.741   1.776  0.1356  0.0487 -0.3161
   76MOL   C29524445   5.630   3.607   1.921  0.2569 -0.3544  0.4362
   76MOL   C29624446   5.587   3.527   2.028  0.0596  0.8815  0.8007
   76MOL   C29724447   5.682   3.483   2.118  0.2332 -0.7159 -0.4175
   76MOL   C29824448   5.885   3.550   2.352  0.8698  0.6540 -0.0397
   76MOL   H29924449   6.008   3.520   2.173 -0.5124  2.4628  0.2289
   76MOL   H30024450   5.961   3.644   2.007  0.0066 -0.6615 -1.6617
   76MOL   H30124451   5.553   3.639   1.852  1.1488  1.9955  0.4727
   76MOL   H30224452   5.485   3.494   2.043  0.8693 -1.1525  1.8900
   76MOL   H30324453   5.649   3.411   2.191 -0.7960 -1.6559 -1.7892
   76MOL   H30424454   5.888   3.658   2.335  0.3151  0.6097 -0.4500
   76MOL   H30524455   5.778   3.531   2.367  1.1007  0.1398  0.9687
   76MOL   C30624456   5.978   3.521   2.468  0.0803 -0.1208 -0.1559
   76MOL   C30724457   6.125   3.523   2.432  0.3937  0.3451 -0.0494
   76MOL   C30824458   6.204   3.409   2.445  0.5908 -0.2888  0.1632
   76MOL   C30924459   6.342   3.409   2.427  0.5345  0.0588  0.7236
   76MOL  Cl31024460   6.451   3.277   2.469 -0.4309  0.0365  0.0101
   76MOL   C31124461   6.400   3.522   2.361  0.2189 -0.1358  0.4702
   76MOL   C31224462   6.325   3.640   2.346 -0.1543  0.2996 -0.8090
   76MOL   C31324463   6.181   3.636   2.379 -0.3954  0.3955  0.3511
   76MOL   C31424464   5.934   3.621   2.582 -0.6680 -0.8001  0.5919
   76MOL   H31524465   5.962   3.421   2.508  1.6551 -1.6928 -3.2359
   76MOL   H31624466   6.156   3.320   2.483  0.0152  0.2956  0.8069
   76MOL   H31724467   6.507   3.519   2.342  0.1900  0.1916  0.2570
   76MOL   H31824468   6.364   3.724   2.291  0.0285  0.7100 -0.0654
   76MOL   H31924469   6.127   3.726   2.355  0.2799  0.1669 -2.2013
   76MOL   H32024470   5.943   3.722   2.542  0.3973 -0.9048  0.5689
   76MOL   H32124471   5.830   3.603   2.608 -1.0296 -2.0964 -1.5673
   76MOL   H32224472   5.995   3.590   2.666 -0.2942 -2.8686 -0.4158
   77MOL     C124473   5.881   1.312   6.561 -0.0559  0.1930  0.6380
   77MOL     C224474   5.756   1.230   6.544  0.2043 -0.1490  0.3158
   77MOL     C324475   5.766   1.091   6.515  0.0540  0.3087  0.0472
   77MOL     C424476   5.651   1.013   6.498 -0.1090 -0.6049 -0.0939
   77MOL    Cl524477   5.673   0.847   6.472  0.1133  0.1963 -0.1082
   77MOL     C624478   5.519   1.070   6.505 -0.1689 -0.6129  0.3581
   77MOL     C724479   5.513   1.208   6.537 -0.2181  0.0648  0.6570
   77MOL     C824480   5.627   1.286   6.558 -0.4283 -0.1198  0.7157
   77MOL     C924481   5.918   1.399   6.434  0.1976 -0.8024 -0.2342
   77MOL    H1024482   5.967   1.246   6.573 -0.1226  0.0349  0.2433
   77MOL    H1124483   5.858   1.035   6.517 -0.2846 -0.2540 -0.1063
   77MOL    H1224484   5.429   1.015   6.479 -0.7065  0.5430 -0.2824
   77MOL    H1324485   5.419   1.261   6.546 -1.7813 -2.7441  1.4752
   77MOL    H1424486   5.624   1.390   6.583  2.8945  0.9643 -2.8438
   77MOL    H1524487   6.027   1.402   6.436  0.2499 -2.0647 -0.5806
   77MOL    H1624488   5.879   1.337   6.353  0.6180 -3.1259  1.2654
   77MOL    H1724489   5.879   1.383   6.644  1.6084  1.1393 -0.1167
   77MOL    C1824490   5.868   1.549   6.427  0.1301 -0.3389  0.2085
   77MOL    C1924491   5.928   1.633   6.536  0.4285 -0.3822 -0.5146
   77MOL    C2024492   5.841   1.732   6.594  0.0715  0.7022 -0.0920
   77MOL    C2124493   5.884   1.813   6.700  0.3311  0.6996 -0.0353
   77MOL   Cl2224494   5.779   1.927   6.770  0.0439  0.0786  0.0865
   77MOL    C2324495   6.017   1.802   6.737  0.8603  0.0961  0.6288
   77MOL    C2424496   6.106   1.712   6.679  0.0995 -0.2897  0.2562
   77MOL    C2524497   6.060   1.624   6.580 -0.5553 -0.6548 -0.1293
   77MOL    C2624498   5.868   1.620   6.295 -0.6093 -0.4377  0.3531
   77MOL    H2724499   5.764   1.539   6.458 -0.5147 -1.4038 -2.1569
   77MOL    H2824500   5.741   1.739   6.555 -0.4619 -0.6908  0.9917
   77MOL    H2924501   6.049   1.873   6.811  0.4569 -2.6809  3.5957
   77MOL    H3024502   6.210   1.725   6.707  0.0840  0.8247 -0.1636
   77MOL    H3124503   6.123   1.559   6.521 -0.7637  1.1118 -2.3789
   77MOL    H3224504   5.815   1.714   6.309  1.5426  0.8048  0.3658
   77MOL    H3324505   5.967   1.658   6.268 -0.4209 -1.3066 -0.1980
   77MOL    C3424506   5.811   1.553   6.169 -0.4441  1.1688 -0.5965
   77MOL    C3524507   5.693   1.473   6.178 -0.0188 -0.0025 -0.2318
   77MOL    C3624508   5.693   1.333   6.153  0.1875 -0.0792  0.1438
   77MOL    C3724509   5.573   1.263   6.170  0.7211 -0.3660  0.6413
   77MOL   Cl3824510   5.581   1.089   6.147 -0.1828  0.0166 -0.1945
   77MOL    C3924511   5.449   1.327   6.198  0.0588  0.0036 -0.1115
   77MOL    C4024512   5.452   1.468   6.220 -0.1053  0.1813 -0.5219
   77MOL    C4124513   5.571   1.538   6.221  0.1619 -0.1598 -0.6002
   77MOL    C4224514   5.782   1.660   6.058 -0.7375  0.4271  0.3997
   77MOL    H4324515   5.883   1.481   6.130  0.3773  2.2702 -1.1354
   77MOL    H4424516   5.784   1.287   6.117  1.0286  1.0602  0.7537
   77MOL    H4524517   5.359   1.267   6.194 -0.2205  0.2887  1.5603
   77MOL    H4624518   5.365   1.521   6.257  0.0257 -0.5347  0.8804
   77MOL    H4724519   5.585   1.642   6.247 -0.2174  0.2671 -1.9958
   77MOL    H4824520   5.725   1.616   5.977  2.7850 -1.3097 -1.2361
   77MOL    H4924521   5.702   1.720   6.102  1.2747  2.2853  1.6723
   77MOL    C5024522   5.900   1.731   5.993 -0.5494  0.5135  0.2323
   77MOL    C5124523   6.006   1.630   5.934 -0.3727  0.2184 -0.1101
   77MOL    C5224524   6.141   1.654   5.940 -0.2918 -0.0308  0.0131
   77MOL    C5324525   6.233   1.579   5.867 -0.0791 -0.2297  0.0104
   77MOL   Cl5424526   6.404   1.614   5.881 -0.1285  0.0574 -0.0185
   77MOL    C5524527   6.189   1.482   5.778 -0.3341  0.4369 -0.4793
   77MOL    C5624528   6.055   1.458   5.769  0.1324 -0.2677  0.1883
   77MOL    C5724529   5.961   1.525   5.848  0.3654 -0.0635 -0.4451
   77MOL    C5824530   5.854   1.834   5.892  0.1920 -0.0982 -0.2981
   77MOL    H5924531   5.947   1.788   6.073  0.1333 -1.7556  1.4763
   77MOL    H6024532   6.180   1.731   6.005  1.1627 -0.2021 -0.6271
   77MOL    H6124533   6.261   1.424   5.722 -0.1738  1.6176 -1.5012
   77MOL    H6224534   6.017   1.375   5.712  1.1682 -0.3186 -0.4402
   77MOL    H6324535   5.853   1.518   5.847  0.2975  0.4721  1.0311
   77MOL    H6424536   5.805   1.776   5.813  0.9373 -0.9772 -0.1288
   77MOL    H6524537   5.782   1.899   5.942 -0.0813 -2.4484  2.5227
   77MOL    C6624538   5.973   1.920   5.830 -0.3059 -0.4325 -0.0643
   77MOL    C6724539   5.946   1.983   5.693 -0.5877  0.1153 -0.0768
   77MOL    C6824540   5.824   2.055   5.679 -0.1195  0.1830 -0.5224
   77MOL    C6924541   5.802   2.128   5.562 -0.0132  0.1933  0.2529
   77MOL   Cl7024542   5.659   2.225   5.553  0.6112  0.1878  0.4147
   77MOL    C7124543   5.906   2.128   5.461 -0.2706  0.2525  0.1558
   77MOL    C7224544   6.032   2.058   5.480 -0.3054  0.4295 -0.4751
   77MOL    C7324545   6.047   1.990   5.601 -0.3667 -0.4057  0.7927
   77MOL    C7424546   6.045   2.022   5.927  0.0554  0.0795  0.2258
   77MOL    H7524547   6.046   1.843   5.803  0.7023  0.1039  1.0857
   77MOL    H7624548   5.758   2.057   5.765 -0.5384 -4.3565 -0.6009
   77MOL    H7724549   5.889   2.174   5.365 -2.1986  2.4913  1.4830
   77MOL    H7824550   6.105   2.050   5.400 -0.3457  0.3929 -0.5076
   77MOL    H7924551   6.136   1.932   5.624 -1.0850 -1.0008  2.1230
   77MOL    H8024552   6.112   1.974   5.998 -1.4969 -2.0095  0.3388
   77MOL    H8124553   6.114   2.070   5.858 -0.6910  0.3305 -0.3646
   77MOL    C8224554   5.955   2.132   5.993 -0.1447  0.1498  0.1780
   77MOL    C8324555   5.900   2.084   6.125 -0.2804  0.1513 -0.0145
   77MOL    C8424556   5.764   2.055   6.143  0.2299  0.0829  0.1978
   77MOL    C8524557   5.713   1.995   6.262  0.8289 -0.8561 -0.3404
   77MOL   Cl8624558   5.543   1.958   6.275  0.3140  0.6271  0.3236
   77MOL    C8724559   5.806   1.975   6.367 -0.1487 -0.1608  0.3297
   77MOL    C8824560   5.940   2.001   6.353 -0.6837 -0.7185  0.4915
   77MOL    C8924561   5.989   2.056   6.231 -0.1671 -0.4473 -0.1118
   77MOL    C9024562   6.024   2.267   6.001 -0.9399  1.4009 -0.2266
   77MOL    H9124563   5.870   2.149   5.927 -2.2971 -0.2790  2.7335
   77MOL    H9224564   5.690   2.068   6.064 -0.6186 -2.2728  0.5694
   77MOL    H9324565   5.776   1.952   6.468  1.3662  0.3080  0.9127
   77MOL    H9424566   6.003   1.980   6.438 -0.9609 -0.7002  0.7021
   77MOL    H9524567   6.093   2.083   6.227 -0.4460  0.8253  0.6482
   77MOL    H9624568   6.066   2.284   6.100 -1.2515  0.0206  0.1542
   77MOL    H9724569   6.116   2.262   5.943 -1.5305 -1.1711 -0.9748
   77MOL    C9824570   5.941   2.384   5.943  0.0471 -0.3788  0.4118
   77MOL    C9924571   5.817   2.412   6.028  0.6039 -0.0999 -0.3782
   77MOL   C10024572   5.689   2.408   5.965 -0.4022  0.1906  0.6436
   77MOL   C10124573   5.576   2.445   6.033  0.3772 -0.5121 -0.3810
   77MOL  Cl10224574   5.433   2.460   5.944  0.3647  0.0966 -0.2064
   77MOL   C10324575   5.586   2.476   6.171 -0.3203  0.0310 -0.3741
   77MOL   C10424576   5.707   2.470   6.240  0.0765 -0.1433  0.5559
   77MOL   C10524577   5.825   2.443   6.164  0.2091  0.1696 -0.5445
   77MOL   C10624578   6.031   2.513   5.919 -0.2154 -0.0377 -0.3150
   77MOL   H10724579   5.901   2.357   5.845  2.0565 -0.8472 -0.3127
   77MOL   H10824580   5.682   2.381   5.860  1.7097  0.8795  0.2978
   77MOL   H10924581   5.496   2.506   6.223  0.7420  0.2085  1.4022
   77MOL   H11024582   5.715   2.487   6.346  0.5280 -0.2056  0.5344
   77MOL   H11124583   5.919   2.445   6.218 -0.4795 -0.8218  0.7114
   77MOL   H11224584   6.082   2.531   6.014 -0.4922 -0.2889 -0.1207
   77MOL   H11324585   6.110   2.497   5.846 -0.3894 -5.4267  0.4758
   77MOL   C11424586   5.967   2.646   5.875 -0.4306  0.3480  0.9535
   77MOL   C11524587   6.067   2.759   5.919 -0.1070 -0.3284  0.0930
   77MOL   C11624588   6.181   2.786   5.844  0.1876  0.2152 -0.5271
   77MOL   C11724589   6.266   2.893   5.875  0.8062 -0.2555 -0.4593
   77MOL  Cl11824590   6.416   2.899   5.792 -0.2915 -0.0727  0.2375
   77MOL   C11924591   6.229   2.982   5.976  0.5109  0.1222  0.2000
   77MOL   C12024592   6.114   2.960   6.047 -0.5487  0.3682  0.6157
   77MOL   C12124593   6.032   2.847   6.025  0.5928 -0.2824  0.0552
   77MOL   C12224594   5.919   2.652   5.729  0.2775  0.1923 -0.5364
   77MOL   H12324595   5.879   2.659   5.939 -0.5732 -0.4875  0.9369
   77MOL   H12424596   6.203   2.728   5.755 -1.0343 -0.0259 -0.6846
   77MOL   H12524597   6.301   3.058   6.004  0.9102  0.0057 -0.5033
   77MOL   H12624598   6.079   3.026   6.126 -1.2078 -0.2397  0.8309
   77MOL   H12724599   5.940   2.835   6.081  1.1034 -0.0106  0.9673
   77MOL   H12824600   6.007   2.661   5.666  1.2217 -1.5252  0.5047
   77MOL   H12924601   5.878   2.555   5.701 -1.6695 -0.0354  2.8373
   77MOL   C13024602   5.814   2.759   5.693 -0.0866  0.2319 -0.3034
   77MOL   C13124603   5.856   2.903   5.716 -0.1857  0.0418 -0.0072
   77MOL   C13224604   5.965   2.956   5.648 -0.6595 -0.0181  0.1363
   77MOL   C13324605   6.009   3.086   5.669  0.7999  0.0100  0.2782
   77MOL  Cl13424606   6.149   3.152   5.589 -0.2774  0.0504 -0.2494
   77MOL   C13524607   5.950   3.165   5.766  0.5848  0.1940  0.9965
   77MOL   C13624608   5.833   3.113   5.831  0.1872 -0.4134 -0.5055
   77MOL   C13724609   5.786   2.985   5.803 -0.8396  0.1525 -0.3238
   77MOL   C13824610   5.767   2.740   5.552  0.9105  0.0848  0.8716
   77MOL   H13924611   5.731   2.748   5.763 -1.2997 -1.1622 -1.9294
   77MOL   H14024612   6.029   2.900   5.582 -0.7257  2.0490 -1.7484
   77MOL   H14124613   5.984   3.266   5.782  1.1273  0.2827 -0.6133
   77MOL   H14224614   5.780   3.180   5.898  0.9869 -1.4313  1.1925
   77MOL   H14324615   5.693   2.951   5.847 -1.4651  3.0420  0.7053
   77MOL   H14424616   5.856   2.743   5.488  0.6740  1.7524  0.6005
   77MOL   H14524617   5.725   2.640   5.539  0.4469  0.4042 -0.1121
   77MOL   C14624618   5.664   2.848   5.490  0.1367  0.8353 -0.0938
   77MOL   C14724619   5.688   2.868   5.338 -0.2415  0.0371 -0.3134
   77MOL   C14824620   5.720   2.994   5.287 -0.2163 -0.1385  0.8600
   77MOL   C14924621   5.750   3.012   5.147  0.0645  0.3560  0.4424
   77MOL  Cl15024622   5.801   3.163   5.079 -0.0426  0.3572  0.2269
   77MOL   C15124623   5.739   2.901   5.060  0.5518  0.0203  0.3100
   77MOL   C15224624   5.704   2.777   5.111  0.7867 -0.4207  0.0365
   77MOL   C15324625   5.686   2.755   5.248 -0.5494 -0.4340  1.2015
   77MOL   C15424626   5.512   2.822   5.515 -0.3837  0.5741  0.7676
   77MOL   H15524627   5.698   2.946   5.523  0.3587  0.7169  0.0293
   77MOL   H15624628   5.707   3.081   5.349  0.1479  0.9195 -0.5110
   77MOL   H15724629   5.743   2.918   4.954  1.8173  1.1543  0.5187
   77MOL   H15824630   5.684   2.690   5.049 -0.4886 -1.0654  1.3165
   77MOL   H15924631   5.673   2.654   5.283 -0.1305 -1.7111 -2.1606
   77MOL   H16024632   5.484   2.775   5.421  0.2389  0.5295  0.6029
   77MOL   H16124633   5.516   2.745   5.593  2.7201 -1.0319 -0.8680
   77MOL   C16224634   5.422   2.942   5.549  0.1303  0.0165 -0.9084
   77MOL   C16324635   5.412   3.046   5.440  0.5965 -0.6907  0.1185
   77MOL   C16424636   5.367   3.006   5.308 -0.7959  0.3296  0.7559
   77MOL   C16524637   5.345   3.104   5.211 -0.3332 -0.2021  0.1565
   77MOL  Cl16624638   5.288   3.069   5.057  0.4106  0.4668 -0.4088
   77MOL   C16724639   5.354   3.242   5.249  0.0794  1.0841  0.6267
   77MOL   C16824640   5.402   3.276   5.376  0.1589  0.3998  0.1737
   77MOL   C16924641   5.429   3.177   5.471 -0.0810 -0.2619  0.1608
   77MOL   C17024642   5.282   2.883   5.596  0.0911  0.4195 -0.1665
   77MOL   H17124643   5.469   2.986   5.637  0.8746  0.5754 -1.5878
   77MOL   H17224644   5.352   2.901   5.285 -0.7635 -0.1407  2.8308
   77MOL   H17324645   5.316   3.317   5.182 -0.8379  0.6387  0.6411
   77MOL   H17424646   5.429   3.380   5.383 -2.3085  1.0068  1.2293
   77MOL   H17524647   5.458   3.208   5.570 -0.7878  2.9336 -0.5629
   77MOL   H17624648   5.219   2.971   5.610 -4.0180 -2.6582  1.3119
   77MOL   H17724649   5.237   2.826   5.515 -1.1456 -0.6652  1.2632
   77MOL   C17824650   5.282   2.796   5.726  0.1153  0.1597 -0.1205
   77MOL   C17924651   5.339   2.863   5.847  0.5902  0.8543 -0.4402
   77MOL   C18024652   5.444   2.811   5.920 -0.0197  0.3760  0.5388
   77MOL   C18124653   5.510   2.874   6.027 -0.9476 -0.6754 -0.0621
   77MOL  Cl18224654   5.644   2.811   6.101  0.4061 -0.3187 -0.0091
   77MOL   C18324655   5.457   2.992   6.072  0.8479  0.3810  0.1381
   77MOL   C18424656   5.350   3.055   6.002 -0.4216 -0.5109  0.4952
   77MOL   C18524657   5.288   2.983   5.899  1.3110  0.3864 -0.7776
   77MOL   C18624658   5.138   2.756   5.761 -0.4278 -0.0082 -0.4811
   77MOL   H18724659   5.339   2.705   5.710  0.7498  0.6922 -0.9184
   77MOL   H18824660   5.489   2.720   5.884 -1.6251 -0.9648  1.8560
   77MOL   H18924661   5.500   3.041   6.158 -2.5202  1.8146  1.0921
   77MOL   H19024662   5.310   3.148   6.041 -0.0344 -0.0270 -0.2661
   77MOL   H19124663   5.200   3.022   5.849 -1.6530 -0.5363  3.4366
   77MOL   H19224664   5.134   2.723   5.864 -0.9255 -1.6137 -1.0020
   77MOL   H19324665   5.078   2.848   5.760 -0.3403  0.0728  0.8098
   77MOL   C19424666   5.072   2.657   5.668 -0.3868 -0.3823  0.6247
   77MOL   C19524667   5.149   2.527   5.650  0.9457 -0.2913 -0.7828
   77MOL   C19624668   5.215   2.518   5.521 -0.2386  0.8698  0.6145
   77MOL   C19724669   5.287   2.402   5.490 -0.1780 -0.1378 -0.2409
   77MOL  Cl19824670   5.349   2.397   5.330 -0.3536  0.0047 -0.1156
   77MOL   C19924671   5.303   2.293   5.586 -0.3475  0.0084 -0.5620
   77MOL   C20024672   5.228   2.301   5.711 -0.8137  0.1713  0.4200
   77MOL   C20124673   5.151   2.416   5.733 -0.0093 -0.4480 -0.0267
   77MOL   C20224674   4.925   2.629   5.717  0.6288 -0.0633 -0.2059
   77MOL   H20324675   5.080   2.717   5.578 -1.8654 -1.1836 -0.0576
   77MOL   H20424676   5.215   2.603   5.455 -2.0109  0.1039 -0.3917
   77MOL   H20524677   5.353   2.198   5.573  1.5509  0.9958 -0.5101
   77MOL   H20624678   5.231   2.227   5.790 -0.1172 -0.7131 -0.4290
   77MOL   H20724679   5.097   2.417   5.826 -2.4029 -0.6849 -1.3700
   77MOL   H20824680   4.887   2.555   5.648 -1.1141  0.5905  0.0293
   77MOL   H20924681   4.918   2.595   5.820  0.6066  1.0890  0.1813
   77MOL   C21024682   4.837   2.754   5.709  0.2892 -0.4949  0.4680
   77MOL   C21124683   4.860   2.837   5.585 -0.2777 -0.0834  0.1942
   77MOL   C21224684   4.880   2.976   5.595 -0.1263  0.0590 -0.1858
   77MOL   C21324685   4.904   3.061   5.488  0.5923 -0.2324 -0.0244
   77MOL  Cl21424686   4.918   3.232   5.500 -0.1474  0.3459  0.1732
   77MOL   C21524687   4.891   3.004   5.359  0.3947  0.5515 -0.1033
   77MOL   C21624688   4.875   2.862   5.346 -0.4081 -0.5421 -0.2075
   77MOL   C21724689   4.858   2.779   5.457  0.9250 -0.3575 -0.6914
   77MOL   C21824690   4.685   2.716   5.717 -0.5071 -0.2949 -0.3209
   77MOL   H21924691   4.854   2.817   5.796 -1.3220  1.5714 -0.6610
   77MOL   H22024692   4.877   3.024   5.692 -1.9799 -2.7172  1.1903
   77MOL   H22124693   4.889   3.066   5.271 -0.6041 -1.1811 -1.3266
   77MOL   H22224694   4.870   2.825   5.245 -0.1434  0.3686 -0.5647
   77MOL   H22324695   4.847   2.673   5.436 -1.4663  0.2299 -2.7098
   77MOL   H22424696   4.630   2.793   5.663  0.2091  0.3924 -0.0784
   77MOL   H22524697   4.668   2.630   5.652 -1.0471 -0.4167 -0.0225
   77MOL   C22624698   4.628   2.684   5.854 -0.2464 -0.0779  0.2107
   77MOL   C22724699   4.487   2.740   5.864  0.5726  0.1688  0.7459
   77MOL   C22824700   4.375   2.687   5.800  0.7479 -0.1742 -0.4749
   77MOL   C22924701   4.243   2.738   5.819  0.2405 -0.8710 -0.3046
   77MOL  Cl23024702   4.102   2.676   5.744  0.2927 -0.3695  0.3109
   77MOL   C23124703   4.219   2.844   5.905  0.5958  0.9385 -0.0328
   77MOL   C23224704   4.334   2.900   5.977 -0.2266  0.6732 -0.6819
   77MOL   C23324705   4.465   2.850   5.953 -0.8975 -0.5206 -0.5564
   77MOL   C23424706   4.630   2.534   5.878  0.0846  0.8055 -0.2148
   77MOL   H23524707   4.682   2.729   5.937 -2.5131 -0.6084  2.0305
   77MOL   H23624708   4.376   2.601   5.734 -0.0339 -1.4582  1.1512
   77MOL   H23724709   4.120   2.881   5.926 -0.2230 -0.4863 -1.2975
   77MOL   H23824710   4.308   2.989   6.032 -1.0287 -0.1249  0.2374
   77MOL   H23924711   4.554   2.890   5.999  0.4654 -2.0567 -1.7965
   77MOL   H24024712   4.594   2.468   5.799  1.1961  0.2618 -0.2918
   77MOL   H24124713   4.735   2.505   5.882 -0.0113  0.6684  1.9829
   77MOL   C24224714   4.568   2.489   6.011  0.0690  0.0620 -0.4312
   77MOL   C24324715   4.428   2.436   5.981 -0.2871 -0.3374  0.0300
   77MOL   C24424716   4.323   2.503   6.046 -0.1044 -0.2928 -0.0278
   77MOL   C24524717   4.196   2.449   6.040 -0.0738  0.0518 -0.3954
   77MOL  Cl24624718   4.068   2.507   6.142 -0.2225  0.4042 -0.7098
   77MOL   C24724719   4.171   2.325   5.973 -0.1030  0.2016 -0.2805
   77MOL   C24824720   4.279   2.260   5.908 -0.9016 -0.2672 -0.0584
   77MOL   C24924721   4.405   2.317   5.908  0.6161  0.4694  0.2315
   77MOL   C25024722   4.639   2.376   6.090 -0.3233  0.1072 -0.0483
   77MOL   H25124723   4.558   2.574   6.077  0.9986 -0.1818  0.0286
   77MOL   H25224724   4.351   2.587   6.108 -0.5373 -1.6101  1.9700
   77MOL   H25324725   4.076   2.274   5.977  0.1743 -0.3872 -1.0543
   77MOL   H25424726   4.264   2.169   5.851 -1.4925  0.2454 -0.7228
   77MOL   H25524727   4.482   2.258   5.860 -0.7411  0.2629 -1.7479
   77MOL   H25624728   4.569   2.344   6.168 -0.0479  2.8519  1.3982
   77MOL   H25724729   4.652   2.285   6.032  0.4562 -1.9393  3.1955
   77MOL   C25824730   4.769   2.417   6.155 -0.3515  0.0884  0.0574
   77MOL   C25924731   4.762   2.548   6.230 -0.1749 -0.3421  0.6198
   77MOL   C26024732   4.809   2.665   6.162  0.8050  0.7349  0.7074
   77MOL   C26124733   4.802   2.792   6.225 -0.1819  0.3676 -0.6054
   77MOL  Cl26224734   4.856   2.937   6.144  0.0302 -0.0414  0.2767
   77MOL   C26324735   4.753   2.805   6.359 -0.0527 -0.5460 -0.0840
   77MOL   C26424736   4.700   2.692   6.420  0.0783  0.5264  0.8575
   77MOL   C26524737   4.699   2.563   6.359 -0.4762 -0.2013 -0.2566
   77MOL   C26624738   4.819   2.290   6.230 -0.1565 -0.2306 -0.2306
   77MOL   H26724739   4.844   2.434   6.078  0.0114  0.8454  0.5744
   77MOL   H26824740   4.848   2.658   6.061  0.1854 -0.8629  0.5605
   77MOL   H26924741   4.748   2.894   6.420 -0.8020 -0.3186 -0.4785
   77MOL   H27024742   4.653   2.712   6.516  0.8848 -1.0470  1.6020
   77MOL   H27124743   4.660   2.472   6.403 -0.9400  1.0826  2.0570
   77MOL   H27224744   4.743   2.254   6.299 -1.4034  0.3551 -1.2640
   77MOL   H27324745   4.853   2.218   6.155  0.8327  0.9036 -0.8925
   77MOL   C27424746   4.932   2.325   6.328  0.0929  0.0440 -0.4363
   77MOL   C27524747   4.978   2.188   6.382  0.1271 -0.0230 -0.5390
   77MOL   C27624748   5.057   2.097   6.313 -0.7105  0.2456 -0.1285
   77MOL   C27724749   5.083   1.961   6.359  0.5567 -0.6786  0.3155
   77MOL  Cl27824750   5.166   1.850   6.266  0.0953 -0.0115  0.2031
   77MOL   C27924751   5.029   1.925   6.487  0.3721 -0.0404  0.1947
   77MOL   C28024752   4.953   2.020   6.559  0.0288 -0.1102  0.1709
   77MOL   C28124753   4.930   2.147   6.511  0.0091  0.3325 -0.1525
   77MOL   C28224754   5.056   2.415   6.271 -0.2892 -1.2654 -0.0250
   77MOL   H28324755   4.891   2.374   6.416  0.4928 -2.5096  1.2414
   77MOL   H28424756   5.113   2.134   6.228  1.5954 -2.6311  0.0473
   77MOL   H28524757   5.041   1.821   6.511  0.9976  0.1547  0.7402
   77MOL   H28624758   4.922   2.009   6.662 -3.5902 -0.3710 -0.8719
   77MOL   H28724759   4.887   2.218   6.580  0.2726  1.3622 -1.0421
   77MOL   H28824760   5.116   2.373   6.190 -0.1062  0.6363 -0.8996
   77MOL   H28924761   5.004   2.498   6.224 -2.1490 -1.1402  2.1646
   77MOL   C29024762   5.146   2.474   6.382  0.6901  0.0663 -0.1310
   77MOL   C29124763   5.228   2.364   6.444 -0.3177 -0.7102  0.0212
   77MOL   C29224764   5.213   2.322   6.578 -0.2889  0.1067 -0.4928
   77MOL   C29324765   5.296   2.214   6.624  0.6456  0.5218 -0.4045
   77MOL  Cl29424766   5.269   2.150   6.789  0.0917 -0.3057 -0.1684
   77MOL   C29524767   5.402   2.168   6.547 -0.2879  0.3984  0.3456
   77MOL   C29624768   5.428   2.229   6.422 -0.2407  0.6594  0.2599
   77MOL   C29724769   5.335   2.316   6.368 -0.1812  0.0424 -0.3625
   77MOL   C29824770   5.227   2.606   6.348 -0.1103  0.6554  0.1784
   77MOL   H29924771   5.075   2.512   6.455  0.8994  2.0507 -0.9235
   77MOL   H30024772   5.142   2.366   6.645  0.2949 -1.2393  1.0585
   77MOL   H30124773   5.465   2.094   6.594 -1.1489  1.5344  3.4141
   77MOL   H30224774   5.515   2.208   6.361  0.0279 -0.4472  1.0104
   77MOL   H30324775   5.353   2.344   6.265 -0.8965  1.0361 -0.2193
   77MOL   H30424776   5.309   2.610   6.419 -0.4307 -0.1033  0.5978
   77MOL   H30524777   5.277   2.591   6.253 -0.3228  2.4229 -0.2247
   77MOL   C30624778   5.138   2.733   6.354 -0.5236 -0.1952  0.3628
   77MOL   C30724779   5.132   2.776   6.492  0.9874  0.6958 -0.2864
   77MOL   C30824780   5.018   2.745   6.572 -0.3552 -0.1643  0.1441
   77MOL   C30924781   5.009   2.787   6.707 -0.9125  0.2700 -0.1840
   77MOL  Cl31024782   4.868   2.748   6.802 -0.1180 -0.0423 -0.1357
   77MOL   C31124783   5.117   2.857   6.765  0.4657 -0.0268  0.0486
   77MOL   C31224784   5.233   2.879   6.686  0.1769  0.4171  0.0953
   77MOL   C31324785   5.234   2.848   6.550 -0.1162  0.1210  0.4887
   77MOL   C31424786   5.203   2.841   6.260  0.1827 -0.4959 -0.0228
   77MOL   H31524787   5.046   2.727   6.296 -0.2998 -0.4967  0.0346
   77MOL   H31624788   4.944   2.677   6.534 -2.2760  1.2513  1.2722
   77MOL   H31724789   5.114   2.900   6.864  0.0431 -1.0994  0.5129
   77MOL   H31824790   5.320   2.937   6.712  0.3755  1.0252 -1.8536
   77MOL   H31924791   5.323   2.866   6.492  1.0526  1.5549  2.7040
   77MOL   H32024792   5.173   2.801   6.163 -1.6189 -1.4588  0.9058
   77MOL   H32124793   5.159   2.940   6.273 -0.2463 -0.7208  0.2472
   77MOL   H32224794   5.311   2.843   6.273 -0.0817 -2.5469  2.9474
   78MOL     C124795   7.978   7.951   4.655 -0.1160 -0.1460 -0.7928
   78MOL     C224796   8.054   8.087   4.651 -0.5383 -0.0610  0.9437
   78MOL     C324797   8.013   8.196   4.571  0.2529  0.4558  0.4271
   78MOL     C424798   8.091   8.312   4.564  0.2149 -0.2949 -0.2724
   78MOL    Cl524799   8.043   8.434   4.449 -0.0003  0.1982 -0.0239
   78MOL     C624800   8.202   8.328   4.650 -0.5021  0.1890  0.3975
   78MOL     C724801   8.233   8.229   4.748 -0.1151 -0.1706 -0.6072
   78MOL     C824802   8.156   8.111   4.750 -0.5133 -0.3856  0.1517
   78MOL     C924803   7.968   7.879   4.516  0.3808  0.3635 -0.2724
   78MOL    H1024804   7.875   7.973   4.683 -0.3266 -2.1471  0.0441
   78MOL    H1124805   7.924   8.197   4.509  0.1469  2.3741  0.5766
   78MOL    H1224806   8.255   8.421   4.657 -0.5295  0.0965  2.0509
   78MOL    H1324807   8.322   8.247   4.806 -1.6392  2.1162  1.1638
   78MOL    H1424808   8.180   8.040   4.827 -1.2508 -1.7449 -0.8527
   78MOL    H1524809   7.890   7.939   4.469 -0.2850 -1.0698 -1.0492
   78MOL    H1624810   8.054   7.892   4.451  0.3073 -1.4417 -0.7546
   78MOL    H1724811   8.012   7.887   4.736 -0.4587  0.2996 -0.2886
   78MOL    C1824812   7.913   7.737   4.511 -1.0920  0.3795 -0.1929
   78MOL    C1924813   7.860   7.706   4.374  0.1172  0.3366  1.0478
   78MOL    C2024814   7.756   7.608   4.372 -0.1679 -0.4140 -0.5869
   78MOL    C2124815   7.704   7.575   4.247  0.5215 -0.1119  0.6000
   78MOL   Cl2224816   7.582   7.457   4.237 -0.0669 -0.6673  0.0389
   78MOL    C2324817   7.748   7.632   4.126  0.1668 -0.6668 -0.2415
   78MOL    C2424818   7.854   7.722   4.126  0.3022  0.5791  0.7344
   78MOL    C2524819   7.918   7.753   4.249  0.2849  0.2738 -0.7661
   78MOL    C2624820   8.036   7.643   4.546 -0.3168 -0.2249  0.6235
   78MOL    H2724821   7.829   7.730   4.579 -1.4546 -0.3171 -0.7026
   78MOL    H2824822   7.719   7.569   4.466 -1.7568  0.0390 -1.0134
   78MOL    H2924823   7.691   7.609   4.037 -1.2308 -0.0648  0.4892
   78MOL    H3024824   7.888   7.774   4.038  0.3287 -1.9177 -0.7584
   78MOL    H3124825   8.002   7.821   4.256  0.2817  0.3307 -1.2983
   78MOL    H3224826   8.104   7.656   4.461  0.7369 -0.5002  1.4176
   78MOL    H3324827   8.084   7.686   4.634 -0.7746  0.0245  0.7482
   78MOL    C3424828   7.994   7.491   4.557 -0.0330 -0.9198  0.6057
   78MOL    C3524829   8.112   7.398   4.560  0.1630 -0.1834  0.0644
   78MOL    C3624830   8.218   7.420   4.661  0.3340  0.3265  0.2062
   78MOL    C3724831   8.340   7.350   4.651 -0.0383  1.1096 -0.4089
   78MOL   Cl3824832   0.041   7.384   4.756 -0.3176 -0.0163  0.3118
   78MOL    C3924833   8.356   7.257   4.546 -0.7032 -0.4562 -0.0870
   78MOL    C4024834   8.254   7.230   4.456 -0.0850  0.1877 -0.1477
   78MOL    C4124835   8.136   7.307   4.454 -0.3867 -0.2212  0.1800
   78MOL    C4224836   7.897   7.465   4.683 -0.5427 -0.1570 -0.0433
   78MOL    H4324837   7.942   7.476   4.462 -0.1395 -0.3778  0.5767
   78MOL    H4424838   8.210   7.497   4.736  0.0542  1.1526 -0.6478
   78MOL    H4524839   0.019   7.211   4.538  0.1632  1.5922 -1.7071
   78MOL    H4624840   8.269   7.168   4.368 -0.8158 -0.4700  0.1939
   78MOL    H4724841   8.074   7.301   4.366 -0.2579  0.8671  0.0122
   78MOL    H4824842   7.946   7.499   4.774 -0.8048  0.7569 -0.2308
   78MOL    H4924843   7.806   7.526   4.676  0.5263  1.8080  2.2138
   78MOL    C5024844   7.871   7.318   4.694 -0.4875  0.5535  0.3764
   78MOL    C5124845   7.796   7.291   4.828 -0.2623 -0.0058 -0.3141
   78MOL    C5224846   7.653   7.301   4.836 -0.5880  0.2998 -0.2996
   78MOL    C5324847   7.597   7.313   4.964  0.3201 -0.4242  0.2986
   78MOL   Cl5424848   7.423   7.340   4.985  0.0564  0.3073 -0.0473
   78MOL    C5524849   7.665   7.284   5.081 -0.1068  0.0823  0.0764
   78MOL    C5624850   7.803   7.262   5.071  0.5967 -0.4975  0.1698
   78MOL    C5724851   7.871   7.278   4.948  0.0830 -0.0766 -0.4445
   78MOL    C5824852   7.793   7.257   4.569  0.3171 -0.2865  0.0314
   78MOL    H5924853   7.970   7.278   4.714 -0.7065  0.4263  1.2528
   78MOL    H6024854   7.601   7.317   4.742  1.5175 -0.9217 -1.7348
   78MOL    H6124855   7.615   7.276   5.176 -0.7629 -1.0793 -0.3651
   78MOL    H6224856   7.855   7.234   5.161 -0.9045 -1.7241  0.6906
   78MOL    H6324857   7.979   7.278   4.948  0.1080 -1.9106 -1.0769
   78MOL    H6424858   7.690   7.292   4.576  0.8901  1.4168  0.1874
   78MOL    H6524859   7.827   7.293   4.472 -1.4236  1.3889  0.0152
   78MOL    C6624860   7.791   7.104   4.551 -0.6560  0.1994 -0.1033
   78MOL    C6724861   7.675   7.066   4.449  0.3580 -0.3260 -0.1556
   78MOL    C6824862   7.712   7.023   4.317  0.2879 -0.9358  0.4656
   78MOL    C6924863   7.607   6.994   4.227  0.1419 -0.5223  0.0431
   78MOL   Cl7024864   7.642   6.927   4.072 -0.5746 -0.1312 -0.0878
   78MOL    C7124865   7.474   7.014   4.265 -0.6438  0.4284  0.4162
   78MOL    C7224866   7.444   7.058   4.392 -0.0357  1.7359 -0.0611
   78MOL    C7324867   7.542   7.076   4.493  0.4872  0.4223  0.1121
   78MOL    C7424868   7.933   7.051   4.515  0.0841 -0.5120 -0.4682
   78MOL    H7524869   7.774   7.067   4.652 -0.1564 -0.5976 -0.2971
   78MOL    H7624870   7.811   7.015   4.276 -0.0643 -0.4635 -0.4953
   78MOL    H7724871   7.398   6.980   4.196  1.4135 -2.0065 -0.7555
   78MOL    H7824872   7.341   7.078   4.420 -0.0173  0.6401  0.8028
   78MOL    H7924873   7.525   7.108   4.595 -0.2419 -0.0121  0.1273
   78MOL    H8024874   7.954   7.096   4.418 -3.7078  2.6210  0.0272
   78MOL    H8124875   8.004   7.097   4.584 -1.0962  0.4522  0.1125
   78MOL    C8224876   7.955   6.899   4.506 -0.3613  0.0884 -0.3592
   78MOL    C8324877   8.080   6.880   4.416 -0.1309  0.4665  0.2782
   78MOL    C8424878   8.213   6.890   4.469  0.1566  0.6555 -0.9961
   78MOL    C8524879   8.329   6.877   4.389  0.0401  0.1526  0.4981
   78MOL   Cl8624880   0.057   6.871   4.460  0.6123 -0.2998  0.0246
   78MOL    C8724881   8.305   6.843   4.252 -0.1119 -0.1960 -0.3024
   78MOL    C8824882   8.182   6.829   4.195  0.1497  0.0232  0.6249
   78MOL    C8924883   8.063   6.853   4.273  0.2309  0.2189 -0.4845
   78MOL    C9024884   7.970   6.827   4.640 -0.6326  0.2806 -0.7418
   78MOL    H9124885   7.874   6.853   4.450 -0.4463  0.6453 -0.7044
   78MOL    H9224886   8.224   6.919   4.573  1.6645 -2.4921 -0.2316
   78MOL    H9324887   8.393   6.816   4.196  0.0530  0.9213 -0.5848
   78MOL    H9424888   8.181   6.804   4.090  1.4980 -1.2544  0.9063
   78MOL    H9524889   7.964   6.835   4.235 -0.0607 -0.0564  0.3785
   78MOL    H9624890   8.033   6.744   4.610 -0.3020  0.0219  0.6008
   78MOL    H9724891   8.031   6.880   4.713  0.1289 -0.5464 -0.7694
   78MOL    C9824892   7.845   6.765   4.703  0.1524  0.2392  0.0405
   78MOL    C9924893   7.761   6.676   4.610  0.1264 -0.1098  1.0883
   78MOL   C10024894   7.806   6.544   4.581  0.3162  0.6185 -0.3720
   78MOL   C10124895   7.726   6.463   4.495  0.8302 -0.4160 -0.4929
   78MOL  Cl10224896   7.776   6.302   4.462 -0.3242  0.1450 -0.0101
   78MOL   C10324897   7.604   6.511   4.445  0.3736  0.5143  0.4379
   78MOL   C10424898   7.554   6.634   4.485 -0.1290 -0.2080  0.6740
   78MOL   C10524899   7.634   6.727   4.561  0.1368  0.3187  0.0163
   78MOL   C10624900   7.877   6.693   4.832  0.3720  0.7359  0.4249
   78MOL   H10724901   7.774   6.845   4.725  0.1080  0.6474 -1.5265
   78MOL   H10824902   7.902   6.510   4.617 -0.1656 -2.1263 -1.5481
   78MOL   H10924903   7.542   6.450   4.379 -0.6349  2.2336 -0.2318
   78MOL   H11024904   7.455   6.671   4.460  0.7743  1.3542 -0.7419
   78MOL   H11124905   7.603   6.828   4.586 -0.9438  0.2192 -0.9300
   78MOL   H11224906   7.813   6.606   4.839 -0.1424  0.9986 -0.8727
   78MOL   H11324907   7.975   6.656   4.803  0.8031  0.2427  2.4561
   78MOL   C11424908   7.871   6.783   4.954 -0.2961 -0.0683  0.3989
   78MOL   C11524909   7.729   6.813   4.995 -0.1141 -0.4898 -0.6620
   78MOL   C11624910   7.652   6.709   5.047 -0.2235  0.2844 -0.4972
   78MOL   C11724911   7.516   6.719   5.084  0.1167  0.6828 -0.0190
   78MOL  Cl11824912   7.427   6.580   5.143  0.2283 -0.3862  0.0055
   78MOL   C11924913   7.453   6.842   5.060  0.3041 -0.3879  0.0190
   78MOL   C12024914   7.524   6.953   5.005 -0.9857 -0.0874 -0.1229
   78MOL   C12124915   7.662   6.935   4.968  0.5185  0.5941 -0.2978
   78MOL   C12224916   7.961   6.739   5.075  0.1931  0.2632 -0.7983
   78MOL   H12324917   7.914   6.878   4.923 -0.7964  0.9069  2.5875
   78MOL   H12424918   7.695   6.611   5.063 -0.5516 -0.0928 -1.8840
   78MOL   H12524919   7.346   6.838   5.077  0.5213 -2.0632  1.1586
   78MOL   H12624920   7.455   7.028   4.967 -0.9974  0.0598  0.1879
   78MOL   H12724921   7.717   7.007   4.909  1.3868  1.4187  1.4809
   78MOL   H12824922   7.954   6.806   5.160 -0.9729 -2.0157  0.9489
   78MOL   H12924923   7.913   6.651   5.119 -0.4136  1.7393  1.5731
   78MOL   C13024924   8.110   6.708   5.046 -0.4608  0.2208 -0.1443
   78MOL   C13124925   8.186   6.820   4.973 -0.3494  0.3126 -0.2591
   78MOL   C13224926   8.187   6.947   5.025 -0.5061  0.6107 -0.5133
   78MOL   C13324927   8.249   7.052   4.955 -0.2259  0.1406 -0.4190
   78MOL  Cl13424928   8.245   7.218   5.003  0.2317 -0.5765 -0.4948
   78MOL   C13524929   8.328   7.017   4.840 -0.4148 -0.2354 -0.3859
   78MOL   C13624930   8.345   6.888   4.800 -0.6086  0.2450  0.6498
   78MOL   C13724931   8.265   6.789   4.859  0.8892 -0.5372  0.0095
   78MOL   C13824932   8.188   6.654   5.170  0.7154 -0.6579  0.4436
   78MOL   H13924933   8.111   6.621   4.981  0.3022  0.7797 -0.9038
   78MOL   H14024934   8.132   6.963   5.117  1.0769 -1.3547  0.7898
   78MOL   H14124935   8.367   7.101   4.785 -0.8026 -0.5860 -1.2235
   78MOL   H14224936   8.402   6.862   4.712 -0.4688 -0.6413  0.9985
   78MOL   H14324937   8.257   6.689   4.820 -1.0097 -0.3481 -0.1327
   78MOL   H14424938   8.290   6.637   5.135 -0.6223 -0.9607 -3.5270
   78MOL   H14524939   8.202   6.734   5.243  1.2211 -1.2570  1.0015
   78MOL   C14624940   8.135   6.528   5.237 -0.4149  0.1259 -0.9946
   78MOL   C14724941   8.130   6.417   5.142 -0.1724 -0.1963 -0.2518
   78MOL   C14824942   8.250   6.356   5.100  0.6049  0.1896 -0.2436
   78MOL   C14924943   8.247   6.241   5.023 -0.1393 -0.5672 -0.0637
   78MOL  Cl15024944   8.392   6.152   4.985 -0.6339 -0.0027 -0.4341
   78MOL   C15124945   8.124   6.192   4.978 -0.0998 -0.3906 -0.3240
   78MOL   C15224946   8.006   6.256   5.015 -0.0158 -0.4472  0.0310
   78MOL   C15324947   8.005   6.369   5.095  0.1987  0.2472 -0.0318
   78MOL   C15424948   8.230   6.489   5.354  0.3673  0.0126 -0.5608
   78MOL   H15524949   8.040   6.548   5.286  0.4188  2.6551 -0.3743
   78MOL   H15624950   8.346   6.388   5.139  0.6366 -1.6091  1.2039
   78MOL   H15724951   8.120   6.100   4.921  0.2874 -0.5245 -0.1440
   78MOL   H15824952   7.908   6.218   4.993 -0.3832  0.2714  0.3992
   78MOL   H15924953   7.917   6.410   5.142 -0.1812  1.0180 -1.3917
   78MOL   H16024954   8.336   6.479   5.329  0.1521  2.3896 -2.6533
   78MOL   H16124955   8.221   6.586   5.402 -1.3459 -0.3556 -0.1047
   78MOL   C16224956   8.176   6.367   5.439  0.0303 -0.2054  0.2459
   78MOL   C16324957   8.245   6.239   5.405 -0.3659 -0.7359 -0.4804
   78MOL   C16424958   8.168   6.140   5.340  0.2645 -0.7342 -0.5683
   78MOL   C16524959   8.227   6.024   5.285  0.0162  0.5205 -0.2364
   78MOL  Cl16624960   8.132   5.895   5.219  0.5276  0.2057  0.4804
   78MOL   C16724961   8.362   6.006   5.306  0.4382  1.6336  0.3303
   78MOL   C16824962   0.002   6.090   5.386  0.3642  0.5092 -0.0480
   78MOL   C16924963   8.383   6.216   5.433  0.0370 -0.2002  1.1575
   78MOL   C17024964   8.177   6.392   5.592  0.6902  0.0855  0.3523
   78MOL   H17124965   8.072   6.354   5.412  0.0831 -0.4448  0.1630
   78MOL   H17224966   8.066   6.148   5.304  0.7260  0.5767 -1.6303
   78MOL   H17324967   8.414   5.920   5.267 -1.5318  0.9643 -0.8870
   78MOL   H17424968   0.106   6.063   5.396  0.0834 -0.6738 -0.1749
   78MOL   H17524969   0.015   6.279   5.489 -2.1349  1.2992  2.1329
   78MOL   H17624970   8.274   6.361   5.632  1.8556 -0.0311 -2.4511
   78MOL   H17724971   8.160   6.500   5.599 -1.2314 -0.2557  1.1802
   78MOL   C17824972   8.046   6.333   5.659 -0.5310  0.1531 -0.4097
   78MOL   C17924973   8.036   6.183   5.646  0.3232  0.1477 -0.1375
   78MOL   C18024974   7.915   6.116   5.621 -0.2398 -0.9746  0.1601
   78MOL   C18124975   7.909   5.978   5.623 -0.2917  0.0457  0.4293
   78MOL  Cl18224976   7.756   5.904   5.600  0.0868 -0.5153  0.4528
   78MOL   C18324977   8.026   5.902   5.641  0.3427  1.1693  0.6061
   78MOL   C18424978   8.150   5.971   5.658 -0.3068  0.2901 -0.3046
   78MOL   C18524979   8.153   6.108   5.666  0.1523  0.2398  0.1845
   78MOL   C18624980   8.003   6.379   5.809 -0.2726 -0.2987 -0.0731
   78MOL   H18724981   7.966   6.370   5.595 -0.3962  1.2714  0.0509
   78MOL   H18824982   7.826   6.175   5.606  0.6579  0.1787 -0.6396
   78MOL   H18924983   8.028   5.795   5.644  0.4086  1.2024  1.9122
   78MOL   H19024984   8.241   5.920   5.688 -0.1758 -1.4896 -3.4072
   78MOL   H19124985   8.248   6.155   5.682 -0.8124  2.7207 -1.1595
   78MOL   H19224986   7.902   6.338   5.813 -1.0447  1.5047 -0.4148
   78MOL   H19324987   8.065   6.315   5.871  0.1654  0.0315 -0.1703
   78MOL   C19424988   8.008   6.533   5.839  0.5536 -0.8123 -0.1143
   78MOL   C19524989   7.873   6.595   5.810  0.3442 -0.3384 -0.4311
   78MOL   C19624990   7.873   6.733   5.789 -0.0717  0.1897  0.1551
   78MOL   C19724991   7.755   6.811   5.782 -0.5217  0.1787 -0.0927
   78MOL  Cl19824992   7.750   6.987   5.786  0.2543  0.2801  0.1474
   78MOL   C19924993   7.633   6.743   5.786 -0.0160 -0.3025  0.0328
   78MOL   C20024994   7.625   6.607   5.800  0.4046  0.1107 -0.3472
   78MOL   C20124995   7.741   6.535   5.825  0.0460  0.5209  1.1189
   78MOL   C20224996   8.065   6.558   5.982  0.0662 -0.6634 -0.3641
   78MOL   H20324997   8.076   6.589   5.774 -0.9755  1.2948  0.0320
   78MOL   H20424998   7.969   6.782   5.787  0.6120 -1.0029  2.2910
   78MOL   H20524999   7.541   6.797   5.769 -0.8038 -1.9559 -1.1556
   78MOL   H20625000   7.526   6.564   5.793  1.5221 -2.2916 -1.7119
   78MOL   H20725001   7.723   6.429   5.840  2.2098 -0.0561 -0.1605
   78MOL   H20825002   8.025   6.654   6.013  1.5460  0.2554 -1.2548
   78MOL   H20925003   8.015   6.483   6.043 -0.2176 -0.9077 -0.8939
   78MOL   C21025004   8.220   6.563   6.003  0.1885 -0.3555 -0.1382
   78MOL   C21125005   8.255   6.599   6.146  0.0619 -0.8393 -0.3955
   78MOL   C21225006   8.335   6.715   6.169  0.0926 -0.2017  0.3441
   78MOL   C21325007   8.356   6.751   6.304  0.2243  0.6115 -0.1973
   78MOL  Cl21425008   0.018   6.884   6.344 -0.3876  0.0996  0.0374
   78MOL   C21525009   8.303   6.670   6.411  0.6312  0.0738  0.2492
   78MOL   C21625010   8.234   6.553   6.389 -0.3312 -0.7893 -0.1913
   78MOL   C21725011   8.204   6.519   6.253 -0.5846  0.1667  0.4605
   78MOL   C21825012   8.293   6.433   5.967  0.1579  0.3097 -0.2276
   78MOL   H21925013   8.253   6.648   5.942 -2.4064 -1.2381 -2.8743
   78MOL   H22025014   8.368   6.770   6.082  0.8040 -0.4740  0.4376
   78MOL   H22125015   8.331   6.700   6.510  1.1996 -0.4031  0.2359
   78MOL   H22225016   8.193   6.485   6.462 -1.2176  0.1041  0.1636
   78MOL   H22325017   8.146   6.430   6.230 -3.0296  1.6514  0.6642
   78MOL   H22425018   8.250   6.358   6.034  1.2761  0.8254  1.0874
   78MOL   H22525019   8.257   6.399   5.870  0.4955 -1.4683  0.2598
   78MOL   C22625020   0.008   6.433   5.981  0.5891 -0.1748 -0.5825
   78MOL   C22725021   0.059   6.290   5.977 -0.3375 -0.0077  0.0719
   78MOL   C22825022   0.052   6.218   5.854  0.1333  0.8434 -0.0144
   78MOL   C22925023   0.100   6.087   5.853 -0.4120 -0.2947  0.1685
   78MOL  Cl23025024   0.084   5.993   5.707  0.4428  0.4293  0.7128
   78MOL   C23125025   0.165   6.037   5.966  0.5925  0.1266 -0.6157
   78MOL   C23225026   0.181   6.108   6.083 -0.4031  0.2190 -0.2642
   78MOL   C23325027   0.116   6.235   6.092 -0.5288  0.6028  0.9897
   78MOL   C23425028   0.085   6.516   5.875 -0.0918  0.6469  0.0006
   78MOL   H23525029   0.035   6.468   6.080 -1.7275 -0.1136  0.0648
   78MOL   H23625030   0.007   6.259   5.765 -0.5594 -0.2079 -0.1624
   78MOL   H23725031   0.212   5.940   5.964 -1.4637 -1.0038  2.1958
   78MOL   H23825032   0.243   6.074   6.164 -0.1594  0.6132 -0.2823
   78MOL   H23925033   0.133   6.284   6.186 -2.9625  1.2454  1.1139
   78MOL   H24025034   0.064   6.472   5.778  0.1627  1.3281 -0.3681
   78MOL   H24125035   0.029   6.609   5.867 -0.2800  0.7019  1.7268
   78MOL   C24225036   0.242   6.557   5.886  0.1181  0.1798  0.5109
   78MOL   C24325037   0.278   6.647   5.769  0.5202 -0.7273  0.6404
   78MOL   C24425038   0.221   6.780   5.773 -0.8085 -0.2284 -0.2424
   78MOL   C24525039   0.242   6.862   5.660 -0.9066 -0.9332  0.0685
   78MOL  Cl24625040   0.161   7.014   5.656 -0.2136 -0.0774  0.0774
   78MOL   C24725041   0.302   6.822   5.544 -0.4044  0.1061 -0.2078
   78MOL   C24825042   0.362   6.695   5.541 -0.0590 -0.4619 -0.5170
   78MOL   C24925043   0.350   6.604   5.654 -0.0206 -0.0762  0.3240
   78MOL   C25025044   0.274   6.628   6.020 -0.0766  0.8182 -0.1303
   78MOL   H25125045   0.305   6.468   5.876  1.2384  1.1834 -1.7807
   78MOL   H25225046   0.172   6.819   5.861 -0.7399 -1.7116  0.4676
   78MOL   H25325047   0.314   6.888   5.460  0.3901  1.0607  0.6366
   78MOL   H25425048   0.414   6.660   5.453  0.1963 -1.1505 -0.1011
   78MOL   H25525049   0.394   6.506   5.649 -0.0225 -0.1055  0.8339
   78MOL   H25625050   0.349   6.703   5.995  0.3128 -0.0156 -1.5621
   78MOL   H25725051   0.192   6.689   6.057  1.3051  2.3374  0.5117
   78MOL   C25825052   0.325   6.535   6.135  0.6029 -0.2105  0.1509
   78MOL   C25925053   0.461   6.478   6.103 -0.0998 -0.4450  0.0709
   78MOL   C26025054   0.480   6.343   6.080  0.2656  0.1095 -0.1736
   78MOL   C26125055   0.608   6.298   6.048 -0.4033  0.4503  0.2380
   78MOL  Cl26225056   0.642   6.131   6.045  0.2600  0.2063 -0.3019
   78MOL   C26325057   0.718   6.389   6.048  0.1529 -0.2470  0.1259
   78MOL   C26425058   0.699   6.524   6.083  0.5063 -0.3887 -0.3157
   78MOL   C26525059   0.571   6.567   6.110  0.4683 -0.4612 -0.3901
   78MOL   C26625060   0.317   6.600   6.278 -0.7881 -0.0793 -0.3517
   78MOL   H26725061   0.248   6.458   6.142 -2.2753  2.2898 -2.4548
   78MOL   H26825062   0.394   6.278   6.077  0.9153 -0.9087  2.4406
   78MOL   H26925063   0.819   6.356   6.028 -0.2710 -0.8283 -1.0901
   78MOL   H27025064   0.779   6.597   6.088  2.0072 -2.0723  0.8044
   78MOL   H27125065   0.560   6.671   6.137 -0.1610 -1.2939  2.8532
   78MOL   H27225066   0.370   6.695   6.276 -0.6542 -0.0509  2.4012
   78MOL   H27325067   0.214   6.613   6.310 -1.3580 -2.0996 -1.2581
   78MOL   C27425068   0.381   6.525   6.401 -0.1872 -0.1096  0.0375
   78MOL   C27525069   0.378   6.608   6.528  0.7694  0.1590 -0.4422
   78MOL   C27625070   0.275   6.601   6.623 -0.3402  0.3340  0.5075
   78MOL   C27725071   0.288   6.675   6.742  0.1600 -0.4635  0.2531
   78MOL  Cl27825072   0.174   6.649   6.871 -0.4621 -0.2722 -0.5111
   78MOL   C27925073   0.396   6.761   6.765  0.8119  0.2164 -0.5785
   78MOL   C28025074   0.493   6.778   6.664  0.9183  0.4196 -0.1653
   78MOL   C28125075   0.491   6.702   6.548 -0.0999  0.1030 -0.0687
   78MOL   C28225076   0.327   6.381   6.404  0.3804  0.3986  0.9774
   78MOL   H28325077   0.488   6.519   6.382  0.1980  3.2777  0.7607
   78MOL   H28425078   0.191   6.534   6.617  1.4850 -2.0316  0.6914
   78MOL   H28525079   0.396   6.801   6.865 -2.6723 -0.7074 -0.1281
   78MOL   H28625080   0.579   6.841   6.679 -0.1097  1.4436  1.7245
   78MOL   H28725081   0.574   6.702   6.479  0.8934 -0.9508  1.1101
   78MOL   H28825082   0.220   6.389   6.422  0.2820  0.0300  0.5558
   78MOL   H28925083   0.342   6.339   6.305 -1.8219  2.4228 -0.2324
   78MOL   C29025084   0.386   6.292   6.511  1.5623 -0.2212 -0.0829
   78MOL   C29125085   0.308   6.161   6.543  0.0428  0.0169  0.6173
   78MOL   C29225086   0.292   6.073   6.436 -0.4212  0.6772 -0.7859
   78MOL   C29325087   0.218   5.958   6.458  0.2935 -0.5128 -0.4962
   78MOL  Cl29425088   0.217   5.843   6.335 -0.0619 -0.0546  0.0069
   78MOL   C29525089   0.158   5.933   6.588  0.3444 -0.2144  0.0088
   78MOL   C29625090   0.162   6.038   6.687 -0.2595  0.1276  0.3923
   78MOL   C29725091   0.236   6.148   6.663  0.4963 -0.4402  0.4133
   78MOL   C29825092   0.535   6.261   6.485 -0.2392 -0.4120  0.1044
   78MOL   H29925093   0.378   6.345   6.606  0.8408 -1.4043  0.5218
   78MOL   H30025094   0.344   6.089   6.342  1.3473  4.0599  0.6663
   78MOL   H30125095   0.108   5.841   6.614  0.5520 -0.3552 -0.0908
   78MOL   H30225096   0.110   6.046   6.782  0.7515  0.2402  0.9483
   78MOL   H30325097   0.248   6.226   6.737 -1.6158  0.9310 -0.6360
   78MOL   H30425098   0.546   6.239   6.379 -0.9602  2.6291 -0.6463
   78MOL   H30525099   0.577   6.357   6.513 -1.7152  0.7694 -1.6237
   78MOL   C30625100   0.592   6.137   6.556 -0.2616  0.8937 -1.2401
   78MOL   C30725101   0.737   6.124   6.516  0.3832  0.1770  0.5023
   78MOL   C30825102   0.775   6.027   6.426 -0.0547  0.0394 -0.1271
   78MOL   C30925103   0.912   6.011   6.391  0.0560 -0.2891 -0.2448
   78MOL  Cl31025104   0.968   5.890   6.283  0.0623 -0.0974  0.2001
   78MOL   C31125105   1.008   6.092   6.450  0.0591  0.0389 -0.1652
   78MOL   C31225106   0.970   6.200   6.536 -0.6043  0.4177 -0.3423
   78MOL   C31325107   0.834   6.211   6.569  0.9687 -0.0548 -0.2026
   78MOL   C31425108   0.588   6.139   6.712  0.2337  0.3105 -0.2509
   78MOL   H31525109   0.535   6.050   6.526  0.5382 -0.0186 -0.1750
   78MOL   H31625110   0.709   5.954   6.383  0.2613 -0.5284  0.3527
   78MOL   H31725111   1.114   6.078   6.436  0.3861  0.1634  1.9871
   78MOL   H31825112   1.051   6.263   6.569 -0.7436  1.6314 -2.2942
   78MOL   H31925113   0.813   6.287   6.642 -1.6731 -0.8460 -0.0631
   78MOL   H32025114   0.487   6.169   6.740 -0.1648  0.6159 -1.9873
   78MOL   H32125115   0.626   6.044   6.748  1.4215  0.5201 -0.9119
   78MOL   H32225116   0.642   6.221   6.760 -1.2633  1.4463 -0.4457
   79MOL     C125117   0.733   0.139   2.219  0.7662 -0.2250 -0.4327
   79MOL     C225118   0.619   0.237   2.221 -0.1868 -0.4034  0.3038
   79MOL     C325119   0.572   0.295   2.342  0.1946 -0.5044 -0.1869
   79MOL     C425120   0.467   0.385   2.337  0.4478 -0.1906  0.7583
   79MOL    Cl525121   0.423   0.460   2.485 -0.5065  0.0519 -0.2082
   79MOL     C625122   0.406   0.413   2.215 -0.3939 -0.2884  0.5111
   79MOL     C725123   0.456   0.361   2.098 -0.6657 -0.0389  0.0828
   79MOL     C825124   0.554   0.268   2.099  0.4454  0.2806  0.6013
   79MOL     C925125   0.866   0.215   2.227 -0.3504  0.1155  0.7655
   79MOL    H1025126   0.725   0.082   2.126  0.8156 -1.8414  0.5467
   79MOL    H1125127   0.605   0.262   2.439  1.2429  0.2452 -0.2794
   79MOL    H1225128   0.320   0.476   2.206 -0.2481 -0.0721  0.6261
   79MOL    H1325129   0.417   0.390   2.002 -0.4763 -0.3808 -0.0954
   79MOL    H1425130   0.589   0.221   2.008 -3.3936  1.4636 -1.5664
   79MOL    H1525131   0.871   0.304   2.164  3.3798  0.5103  1.4918
   79MOL    H1625132   0.869   0.258   2.327  1.1808 -0.0814  0.8259
   79MOL    H1725133   0.715   0.061   2.293  1.5607 -0.4608 -0.4886
   79MOL    C1825134   1.005   0.127   2.210 -0.5313 -0.5104 -0.4966
   79MOL    C1925135   1.004   0.054   2.076 -0.3169 -0.6097 -0.1969
   79MOL    C2025136   1.050   8.356   2.070 -0.6092 -0.2820 -0.2439
   79MOL    C2125137   1.054   8.289   1.945  0.2214 -0.5376 -0.0069
   79MOL   Cl2225138   1.124   8.127   1.940  0.1979 -0.0113  0.0169
   79MOL    C2325139   1.009   8.350   1.824  0.1493 -0.5406  0.5079
   79MOL    C2425140   0.966   0.051   1.830  1.0578  0.7885 -0.3374
   79MOL    C2525141   0.958   0.115   1.956 -0.8005 -0.1102 -0.0104
   79MOL    C2625142   1.125   0.223   2.218 -0.1290 -0.4347 -0.1815
   79MOL    H2725143   1.023   0.048   2.283 -0.3007 -0.0813 -0.0901
   79MOL    H2825144   1.096   8.308   2.156  0.0916 -1.9783 -1.5406
   79MOL    H2925145   1.011   8.302   1.728  1.2420  1.5629 -0.5639
   79MOL    H3025146   0.922   0.100   1.744  1.8998  1.3862 -0.4328
   79MOL    H3125147   0.913   0.213   1.968 -0.3855  0.1095 -0.2062
   79MOL    H3225148   1.095   0.313   2.165 -0.9117 -0.5799  0.0199
   79MOL    H3325149   1.140   0.255   2.321 -3.4508  0.7356 -0.0183
   79MOL    C3425150   1.255   0.174   2.156 -0.0668  0.1085  0.6386
   79MOL    C3525151   1.347   0.294   2.136  0.2264 -0.5688  0.3958
   79MOL    C3625152   1.437   0.340   2.232 -0.3204  0.0602 -0.5655
   79MOL    C3725153   1.524   0.447   2.201 -0.0121 -0.3364  0.3395
   79MOL   Cl3825154   1.614   0.511   2.336  0.0977 -0.0261  0.1701
   79MOL    C3925155   1.512   0.507   2.077 -0.1358  0.4385 -0.0882
   79MOL    C4025156   1.431   0.454   1.977  0.6572 -0.1290  0.8260
   79MOL    C4125157   1.347   0.346   2.009  0.0828  0.4772  0.3605
   79MOL    C4225158   1.315   0.064   2.246  0.1195  0.5148  0.5871
   79MOL    H4325159   1.229   0.135   2.058  2.4830  1.1313 -0.4923
   79MOL    H4425160   1.445   0.300   2.332  2.5378 -0.6391 -1.0053
   79MOL    H4525161   1.574   0.595   2.070  1.7872 -0.7843  1.1489
   79MOL    H4625162   1.430   0.484   1.873  1.4363  0.6663  1.0447
   79MOL    H4725163   1.282   0.300   1.936  0.5437  0.8259 -0.2843
   79MOL    H4825164   1.339   0.122   2.334  0.0276  2.1433 -0.4422
   79MOL    H4925165   1.223   0.010   2.271  0.0062 -0.4375 -1.6833
   79MOL    C5025166   1.420   8.395   2.190 -0.5062  0.1385 -0.2839
   79MOL    C5125167   1.558   0.018   2.210  0.0407  0.6592 -0.0398
   79MOL    C5225168   1.634   0.078   2.103 -0.2994  0.1498 -0.8454
   79MOL    C5325169   1.756   0.138   2.134  0.5457  0.3369  0.0156
   79MOL   Cl5425170   1.850   0.207   2.007 -0.0674  0.0092  0.2888
   79MOL    C5525171   1.811   0.135   2.265 -0.5258 -0.6090 -0.3199
   79MOL    C5625172   1.745   0.070   2.372 -0.0067  0.3360 -0.1303
   79MOL    C5725173   1.621   0.013   2.339  0.5705 -0.7825 -0.1604
   79MOL    C5825174   1.403   8.260   2.251  0.6130 -0.8167 -0.0320
   79MOL    H5925175   1.398   8.386   2.084  3.8920 -0.6133 -1.2315
   79MOL    H6025176   1.590   0.080   2.004 -3.4303  1.3690  0.5101
   79MOL    H6125177   1.908   0.176   2.289 -0.3794 -3.2205  4.3140
   79MOL    H6225178   1.780   0.072   2.474 -0.2655  0.2367 -0.0368
   79MOL    H6325179   1.569   8.408   2.425  1.4126 -0.9001  0.2928
   79MOL    H6425180   1.391   8.265   2.359  0.6013 -1.5162  0.0015
   79MOL    H6525181   1.306   8.218   2.224 -0.7900  1.1804  1.8192
   79MOL    C6625182   1.519   8.150   2.221  0.5585  0.0835 -0.6127
   79MOL    C6725183   1.468   8.018   2.277  0.1369 -0.7709  0.5989
   79MOL    C6825184   1.538   7.960   2.390  0.6000 -0.1954  0.5973
   79MOL    C6925185   1.486   7.843   2.444 -0.4682 -0.3496  0.1812
   79MOL   Cl7025186   1.571   7.791   2.584  0.2384  0.2258 -0.1191
   79MOL    C7125187   1.378   7.774   2.393 -0.9134 -0.4214 -0.3377
   79MOL    C7225188   1.319   7.829   2.274 -0.1724  0.1763  0.2576
   79MOL    C7325189   1.356   7.958   2.225  0.1529 -0.1810 -0.6660
   79MOL    C7425190   1.556   8.134   2.073 -0.2073 -0.0343  0.0157
   79MOL    H7525191   1.603   8.179   2.284  1.3755  1.5787 -2.3333
   79MOL    H7625192   1.629   7.999   2.432 -0.0755  1.2188  0.7799
   79MOL    H7725193   1.352   7.683   2.443 -0.3380 -1.2704 -1.5562
   79MOL    H7825194   1.242   7.772   2.225  0.1498 -0.6090  0.6594
   79MOL    H7925195   1.306   8.008   2.143 -0.1117 -1.1242 -1.0802
   79MOL    H8025196   1.552   8.027   2.050 -2.5682 -0.0472  0.3170
   79MOL    H8125197   1.474   8.177   2.016 -0.4039 -0.5213 -0.0727
   79MOL    C8225198   1.692   8.178   2.016 -0.5651 -0.4301 -0.2998
   79MOL    C8325199   1.808   8.126   2.093  0.3546 -0.1964 -0.1468
   79MOL    C8425200   1.890   8.222   2.158  0.2698  0.4456  0.4988
   79MOL    C8525201   1.995   8.177   2.238  0.1404 -0.4103  0.0050
   79MOL   Cl8625202   2.102   8.291   2.324 -0.0406  0.3293  0.3498
   79MOL    C8725203   2.023   8.034   2.254 -0.4979  0.2655  0.2274
   79MOL    C8825204   1.939   7.940   2.183  0.6250 -0.4804 -0.0072
   79MOL    C8925205   1.834   7.991   2.099  0.1353 -0.9406 -0.6993
   79MOL    C9025206   1.713   8.144   1.865 -0.0211  0.3045 -0.6627
   79MOL    H9125207   1.696   8.287   2.012 -0.8523 -0.1805  3.9386
   79MOL    H9225208   1.871   8.328   2.155 -1.0707  0.2324  1.3818
   79MOL    H9325209   2.104   7.997   2.315 -0.0850  0.3991 -0.2368
   79MOL    H9425210   1.959   7.835   2.174 -0.2474 -0.6796  0.3014
   79MOL    H9525211   1.763   7.926   2.050 -0.7441  0.6756 -1.5961
   79MOL    H9625212   1.809   8.191   1.842  0.0553  1.3150  1.6657
   79MOL    H9725213   1.729   8.037   1.858 -1.4400 -0.0809  1.7483
   79MOL    C9825214   1.598   8.182   1.772  0.1449  0.0003 -0.7833
   79MOL    C9925215   1.576   8.329   1.771 -0.2504  0.4940 -1.4090
   79MOL   C10025216   1.442   8.380   1.766  0.0241  0.3049  0.0352
   79MOL   C10125217   1.423   0.078   1.732 -0.3856  0.2347 -0.1508
   79MOL  Cl10225218   1.261   0.145   1.727  0.3116 -0.0604 -0.2988
   79MOL   C10325219   1.534   0.163   1.718 -0.2779  0.3936 -0.0971
   79MOL   C10425220   1.666   0.118   1.728 -0.3644 -0.2015 -0.3266
   79MOL   C10525221   1.688   8.419   1.758 -0.2432  0.0121  0.6804
   79MOL   C10625222   1.629   8.141   1.626 -0.0615  0.6407  0.2687
   79MOL   H10725223   1.505   8.137   1.806  0.7086 -0.4316  0.1952
   79MOL   H10825224   1.358   8.313   1.774  0.2539  0.2122  1.6866
   79MOL   H10925225   1.519   0.266   1.691  1.4501  0.8368  0.5652
   79MOL   H11025226   1.752   0.183   1.715  0.9006 -1.6119  0.8176
   79MOL   H11125227   1.791   8.389   1.775  0.0541 -0.3047 -1.5132
   79MOL   H11225228   1.568   8.201   1.559  1.2472  1.3845 -0.2620
   79MOL   H11325229   1.728   8.174   1.596  0.1671 -0.3994 -0.1415
   79MOL   C11425230   1.618   7.991   1.592 -0.1309 -0.5566  0.0710
   79MOL   C11525231   1.511   7.918   1.673  0.2832  0.9464  0.0491
   79MOL   C11625232   1.545   7.837   1.778  0.5810 -0.2532  0.0060
   79MOL   C11725233   1.453   7.754   1.846 -0.0085 -0.6317 -0.5439
   79MOL  Cl11825234   1.510   7.643   1.964  0.1478 -0.3609  0.0514
   79MOL   C11925235   1.316   7.787   1.833 -0.8971  0.4352 -0.0087
   79MOL   C12025236   1.273   7.875   1.733  1.1695  0.0097  0.1080
   79MOL   C12125237   1.371   7.933   1.650  0.0557 -0.4566 -0.6314
   79MOL   C12225238   1.612   7.957   1.441  0.3759 -0.2712  1.3491
   79MOL   H12325239   1.717   7.962   1.627  0.6267  0.8783 -0.8297
   79MOL   H12425240   1.649   7.814   1.796  0.2832 -1.3811  0.3510
   79MOL   H12525241   1.245   7.732   1.892  0.8458  0.3446  2.0690
   79MOL   H12625242   1.168   7.892   1.713  1.3696  1.1632 -0.0061
   79MOL   H12725243   1.345   8.005   1.573 -1.2484  3.7219  3.4834
   79MOL   H12825244   1.515   7.935   1.395  1.0081 -0.6197  0.1525
   79MOL   H12925245   1.647   8.046   1.388 -2.4478  0.9868  1.4947
   79MOL   C13025246   1.704   7.838   1.407  0.8062 -0.3209 -0.0559
   79MOL   C13125247   1.672   7.710   1.486 -0.8369 -0.4729  0.2573
   79MOL   C13225248   1.547   7.660   1.490  0.1075 -0.0110 -0.0645
   79MOL   C13325249   1.527   7.531   1.549  0.3423  0.0026 -0.3016
   79MOL  Cl13425250   1.368   7.463   1.537  0.2327  0.2202  0.3244
   79MOL   C13525251   1.632   7.462   1.618  0.2656  0.1147 -0.1003
   79MOL   C13625252   1.760   7.525   1.630 -1.0157 -0.3214  0.3090
   79MOL   C13725253   1.778   7.645   1.553 -0.0145  0.0577  0.0049
   79MOL   C13825254   1.734   7.804   1.258 -0.5290 -0.5755 -0.4631
   79MOL   H13925255   1.805   7.859   1.445  0.8737  0.5788 -0.7285
   79MOL   H14025256   1.467   7.707   1.434 -1.5691 -0.4167  1.9186
   79MOL   H14125257   1.614   7.369   1.670  1.3151 -1.0515 -1.7758
   79MOL   H14225258   1.845   7.481   1.679  0.2795 -0.1965 -1.7361
   79MOL   H14325259   1.881   7.677   1.561  0.5345 -2.0339  2.0078
   79MOL   H14425260   1.817   7.734   1.266  1.2242  1.6404  1.1020
   79MOL   H14525261   1.642   7.755   1.225 -0.8077 -1.1722  1.1413
   79MOL   C14625262   1.783   7.925   1.169  0.1529  0.0145  0.5267
   79MOL   C14725263   1.897   8.006   1.242 -0.3391  0.0609  0.1522
   79MOL   C14825264   1.876   8.138   1.285 -1.1446  0.3602  0.4212
   79MOL   C14925265   1.972   8.205   1.362 -0.8043  0.4222 -0.2263
   79MOL  Cl15025266   1.939   8.364   1.415 -0.1565 -0.2004  0.2392
   79MOL   C15125267   2.093   8.136   1.398 -0.5096  0.0279  0.3420
   79MOL   C15225268   2.114   8.001   1.351  0.3178 -0.6534  0.6347
   79MOL   C15325269   2.016   7.940   1.275  0.1909 -0.3648 -0.4594
   79MOL   C15425270   1.821   7.890   1.025 -0.0231  0.0624  0.1761
   79MOL   H15525271   1.704   8.001   1.163 -0.8308 -1.1289 -1.6915
   79MOL   H15625272   1.791   8.200   1.260 -0.0656  2.1894  1.1596
   79MOL   H15725273   2.173   8.190   1.446  2.2950 -2.1349 -1.6698
   79MOL   H15825274   2.213   7.958   1.350  1.7204  2.3957 -2.8500
   79MOL   H15925275   2.031   7.836   1.249 -0.5801 -0.6141  0.0658
   79MOL   H16025276   1.874   7.973   0.979  3.1228 -1.9793 -0.0587
   79MOL   H16125277   1.901   7.816   1.028  0.3407  0.4603  0.2586
   79MOL   C16225278   1.701   7.839   0.931 -0.1800  0.6953 -0.4376
   79MOL   C16325279   1.626   7.947   0.850 -0.4101  0.4440 -0.4131
   79MOL   C16425280   1.691   8.040   0.761 -0.6462 -0.2452 -0.6474
   79MOL   C16525281   1.614   8.135   0.685  0.3317  0.7430  0.5010
   79MOL  Cl16625282   1.688   8.248   0.585 -0.2961  0.0126 -0.0046
   79MOL   C16725283   1.477   8.132   0.695 -0.3887 -0.3536  0.1726
   79MOL   C16825284   1.409   8.043   0.778  0.5004  0.8329  0.1932
   79MOL   C16925285   1.484   7.950   0.850 -0.0864 -0.6567  0.2969
   79MOL   C17025286   1.743   7.723   0.835  0.3089  0.1133 -0.3795
   79MOL   H17125287   1.629   7.804   1.005  0.6397 -2.2859 -0.9807
   79MOL   H17225288   1.798   8.036   0.752 -0.6165 -0.3847 -0.2686
   79MOL   H17325289   1.413   8.195   0.634 -0.3381 -2.4102 -2.0837
   79MOL   H17425290   1.302   8.044   0.790 -0.0844 -2.8161 -3.6144
   79MOL   H17525291   1.422   7.880   0.904 -0.8439  0.1110  0.4248
   79MOL   H17625292   1.656   7.702   0.773  0.1753 -1.7154  0.3736
   79MOL   H17725293   1.821   7.755   0.766 -0.4167 -0.6943 -1.5856
   79MOL   C17825294   1.782   7.593   0.909  0.2991 -0.5873  0.2627
   79MOL   C17925295   1.697   7.542   1.025 -0.0191  0.1348 -0.0148
   79MOL   C18025296   1.559   7.540   1.021  0.0470 -0.4696  0.3744
   79MOL   C18125297   1.485   7.483   1.124 -0.2646  0.0099 -0.1450
   79MOL  Cl18225298   1.311   7.477   1.120 -0.4758  0.0386 -0.1651
   79MOL   C18325299   1.549   7.431   1.232  0.2840  1.0100 -0.1421
   79MOL   C18425300   1.691   7.431   1.247  0.5110  0.1130  0.2921
   79MOL   C18525301   1.766   7.489   1.138 -0.7911  0.3363 -0.6740
   79MOL   C18625302   1.828   7.470   0.812  0.5760 -0.5779  1.3771
   79MOL   H18725303   1.873   7.621   0.964  1.2901 -1.9284 -0.6747
   79MOL   H18825304   1.505   7.589   0.941  3.0228 -1.8738 -2.6293
   79MOL   H18925305   1.485   7.389   1.308  1.3572 -0.7945 -0.2178
   79MOL   H19025306   1.735   7.377   1.330 -0.8256  2.9162  2.9562
   79MOL   H19125307   1.873   7.493   1.152 -0.2219 -1.0080 -4.2018
   79MOL   H19225308   1.931   7.485   0.780 -0.0196  2.8344  0.8616
   79MOL   H19325309   1.835   7.373   0.860 -0.8633 -1.1190  0.5128
   79MOL   C19425310   1.755   7.446   0.677  0.3058 -0.0107  0.0389
   79MOL   C19525311   1.814   7.339   0.584 -0.0504  0.1334 -0.0981
   79MOL   C19625312   1.854   7.375   0.458 -0.2303  0.8224 -0.0012
   79MOL   C19725313   1.886   7.275   0.367 -0.6884  0.6577  0.0694
   79MOL  Cl19825314   1.921   7.315   0.205 -0.3891 -0.2727  0.3622
   79MOL   C19925315   1.883   7.143   0.400 -0.7075  0.0589  0.0158
   79MOL   C20025316   1.848   7.108   0.531  0.0622  0.8262 -0.3855
   79MOL   C20125317   1.814   7.207   0.622 -0.4690  0.7870 -0.5792
   79MOL   C20225318   1.610   7.409   0.699 -0.1028 -0.1652  0.2821
   79MOL   H20325319   1.762   7.539   0.621  0.1372 -0.2650 -0.4004
   79MOL   H20425320   1.872   7.473   0.416 -2.1371  1.7053  1.1751
   79MOL   H20525321   1.900   7.059   0.333 -1.1166 -1.4953  1.8142
   79MOL   H20625322   1.857   7.004   0.561 -2.6768  0.7301  0.2362
   79MOL   H20725323   1.792   7.191   0.727 -0.1988 -0.2096 -0.6701
   79MOL   H20825324   1.610   7.324   0.767 -0.0132 -0.6620 -0.3280
   79MOL   H20925325   1.553   7.477   0.762 -0.0868 -0.1385  0.2676
   79MOL   C21025326   1.527   7.395   0.570  0.2652 -0.8228 -1.2977
   79MOL   C21125327   1.433   7.288   0.593  0.5485 -0.0483  0.1868
   79MOL   C21225328   1.342   7.279   0.707  0.4823  0.2563 -0.5362
   79MOL   C21325329   1.230   7.188   0.704  0.0104 -1.1113  0.0605
   79MOL  Cl21425330   1.121   7.161   0.839  0.4033  0.0601 -0.2195
   79MOL   C21525331   1.224   7.098   0.597  0.1313  0.4961 -0.8096
   79MOL   C21625332   1.309   7.111   0.488  0.3733 -0.0572  0.1375
   79MOL   C21725333   1.405   7.205   0.490  0.3366  0.3696 -0.1892
   79MOL   C21825334   1.463   7.528   0.540  0.0340 -0.2363  0.7482
   79MOL   H21925335   1.586   7.363   0.484  1.7533  0.9997 -0.9848
   79MOL   H22025336   1.355   7.349   0.788  0.2105  1.9445 -1.9301
   79MOL   H22125337   1.148   7.021   0.592  4.3647 -4.0136  0.4464
   79MOL   H22225338   1.282   7.055   0.399  2.2743  0.9511 -1.1048
   79MOL   H22325339   1.460   7.211   0.398 -0.3693  2.0655 -0.5183
   79MOL   H22425340   1.366   7.532   0.590 -1.5665 -1.0042 -2.1828
   79MOL   H22525341   1.529   7.605   0.578  0.7764 -0.5494  0.0876
   79MOL   C22625342   1.430   7.549   0.392  0.4607  0.0150  0.2210
   79MOL   C22725343   1.335   7.666   0.371  0.1227  0.2635  0.9989
   79MOL   C22825344   1.207   7.638   0.325  0.0822 -1.5145  0.1232
   79MOL   C22925345   1.121   7.745   0.294  0.6090 -0.4112 -0.4153
   79MOL  Cl23025346   0.951   7.716   0.264 -0.0542  0.2248 -0.1895
   79MOL   C23125347   1.169   7.878   0.315 -0.0521 -0.1114 -0.3518
   79MOL   C23225348   1.295   7.899   0.365  1.4226  0.1297 -1.2334
   79MOL   C23325349   1.384   7.794   0.388 -0.4763  0.7004  0.7779
   79MOL   C23425350   1.550   7.556   0.295 -0.8060  0.0366  0.4405
   79MOL   H23525351   1.377   7.457   0.369 -0.8147  0.4559  1.3581
   79MOL   H23625352   1.176   7.535   0.332  2.0799 -1.9754  3.8349
   79MOL   H23725353   1.107   7.966   0.310  0.6033  0.3430 -0.6591
   79MOL   H23825354   1.327   7.996   0.399  0.5062  0.6474 -1.8444
   79MOL   H23925355   1.486   7.816   0.416 -0.3867  1.9848 -0.4931
   79MOL   H24025356   1.615   7.641   0.317 -1.4698  0.9407 -0.9779
   79MOL   H24125357   1.620   7.474   0.309 -0.3829 -0.0072 -1.6809
   79MOL   C24225358   1.525   7.531   0.145  0.0575  0.1931  0.5445
   79MOL   C24325359   1.446   7.410   0.112 -0.3671  0.1058 -1.3989
   79MOL   C24425360   1.493   7.276   0.111  0.1072 -0.5591 -0.5451
   79MOL   C24525361   1.408   7.172   0.085 -0.4268  0.4907  0.3986
   79MOL  Cl24625362   1.467   7.006   0.115  0.0375 -0.3639  0.0352
   79MOL   C24725363   1.282   7.194   0.022  0.2196  0.0873  0.0883
   79MOL   C24825364   1.238   7.327   0.010  0.6738 -0.1809 -0.4499
   79MOL   C24925365   1.314   7.431   0.060  0.2159  0.4409  0.0697
   79MOL   C25025366   1.482   7.658   0.053 -0.0833 -0.0080 -0.7313
   79MOL   H25125367   1.620   7.496   0.104 -1.0292 -0.7156 -1.2733
   79MOL   H25225368   1.599   7.261   0.128 -0.0891 -1.2117  0.1257
   79MOL   H25325369   1.213   7.116   8.428  0.5780  0.4047 -1.6605
   79MOL   H25425370   1.139   7.348   8.408  0.9247  1.9675  0.0490
   79MOL   H25525371   1.264   7.526   0.068  1.6045  1.1030  1.1335
   79MOL   H25625372   1.456   7.632   8.386 -0.0130  1.7198 -1.2079
   79MOL   H25725373   1.391   7.694   0.100  1.1635  1.4164  0.6463
   79MOL   C25825374   1.580   7.776   0.049  0.5412  0.3183  0.3935
   79MOL   C25925375   1.692   7.750   8.393  0.0125  0.3933  0.8990
   79MOL   C26025376   1.828   7.727   0.005 -0.3425  0.2824  0.9108
   79MOL   C26125377   1.930   7.711   8.343 -0.3353  0.3539  0.3116
   79MOL  Cl26225378   2.089   7.682   8.409 -0.6283  0.0744  0.1342
   79MOL   C26325379   1.905   7.714   8.207 -0.5212 -0.0272  0.8814
   79MOL   C26425380   1.777   7.737   8.163  0.2797  0.0965  0.4129
   79MOL   C26525381   1.666   7.755   8.255 -0.1755  0.3873  0.3268
   79MOL   C26625382   1.502   7.911   0.031 -0.3536  0.3571 -0.0440
   79MOL   H26725383   1.621   7.781   0.150  0.7971  0.5497  0.2800
   79MOL   H26825384   1.855   7.713   0.109  0.4390  0.3051  0.7106
   79MOL   H26925385   1.977   7.685   8.133  0.2807  2.0142  0.8365
   79MOL   H27025386   1.759   7.739   8.057  1.5360 -0.7670  0.1724
   79MOL   H27125387   1.573   7.774   8.204  0.8325 -0.3131 -1.8387
   79MOL   H27225388   1.451   7.897   8.371  0.0366  0.5355 -0.2803
   79MOL   H27325389   1.430   7.923   0.112 -0.5427 -0.9286 -0.0195
   79MOL   C27425390   1.585   8.040   0.002 -0.1390 -0.8741  0.1665
   79MOL   C27525391   1.498   8.163   8.413  0.2754 -0.2027  0.5634
   79MOL   C27625392   1.451   8.252   0.078 -0.0166 -0.8407  0.3306
   79MOL   C27725393   1.391   8.373   0.042  0.1508 -0.1025 -0.0147
   79MOL  Cl27825394   1.331   0.023   0.179  0.1513  0.2111  0.0242
   79MOL   C27925395   1.365   8.405   8.339  0.4471  0.1461 -0.0568
   79MOL   C28025396   1.411   8.322   8.237 -0.0142  0.1009  0.2599
   79MOL   C28125397   1.473   8.198   8.276 -0.2862  0.4259  0.0992
   79MOL   C28225398   1.692   8.076   0.112 -0.2517  0.5576  0.0370
   79MOL   H28325399   1.643   8.023   8.346  2.6766 -1.3761  1.9955
   79MOL   H28425400   1.473   8.223   0.179  0.4779 -0.5563  0.3090
   79MOL   H28525401   1.315   0.063   8.317  0.2209 -0.3688 -1.7778
   79MOL   H28625402   1.388   8.333   8.132 -1.0742 -1.3403  0.3199
   79MOL   H28725403   1.505   8.126   8.203  0.4828  0.5404  0.3262
   79MOL   H28825404   1.634   8.090   0.203  2.3183 -2.0619  2.1589
   79MOL   H28925405   1.755   7.993   0.142  0.2611  0.6524 -0.7492
   79MOL   C29025406   1.788   8.185   0.080 -0.1031  0.0097  0.0619
   79MOL   C29125407   1.842   8.254   0.206 -0.2094 -0.1019 -0.6215
   79MOL   C29225408   1.942   8.181   0.284 -0.2179  0.8628  0.0774
   79MOL   C29325409   1.997   8.241   0.400 -0.2174  0.3190 -0.0464
   79MOL  Cl29425410   2.116   8.151   0.484  0.1332  0.1261  0.0120
   79MOL   C29525411   1.951   8.364   0.446 -0.9946  0.0780  0.5249
   79MOL   C29625412   1.844   8.430   0.377  0.2680  0.0319  0.1774
   79MOL   C29725413   1.791   8.374   0.261 -0.7962  0.2834 -0.0742
   79MOL   C29825414   1.894   8.122   8.422  0.4046 -0.0402 -0.6579
   79MOL   H29925415   1.740   8.262   0.019 -0.8974  0.6021  1.4152
   79MOL   H30025416   1.988   8.089   0.252  0.7463  0.5206  2.3338
   79MOL   H30125417   2.010   8.414   0.521  2.0499  0.1464 -1.8192
   79MOL   H30225418   1.809   0.094   0.400  1.5017  1.1386 -2.5159
   79MOL   H30325419   1.708   8.422   0.212 -0.6834 -0.5134 -1.0721
   79MOL   H30425420   1.968   8.067   0.045  1.6520 -1.1905 -3.2349
   79MOL   H30525421   1.854   8.049   8.351  0.3789  0.1227 -0.8100
   79MOL   C30625422   1.963   8.228   8.339  0.6003 -0.2293  0.5050
   79MOL   C30725423   2.093   8.176   8.280 -0.3328 -0.1886 -0.6302
   79MOL   C30825424   2.212   8.245   8.293 -0.2651 -0.6031  0.4906
   79MOL   C30925425   2.329   8.192   8.241 -0.8287  0.6905  0.3433
   79MOL  Cl31025426   2.469   8.287   8.257  0.1609 -0.5017  0.2426
   79MOL   C31125427   2.329   8.069   8.170 -0.2102 -0.3424 -0.0485
   79MOL   C31225428   2.211   7.995   8.159 -0.2693  0.1850 -0.3169
   79MOL   C31325429   2.097   8.053   8.211 -0.4540  0.1796 -0.0948
   79MOL   C31425430   1.868   8.281   8.224 -0.0947 -0.0209 -0.3266
   79MOL   H31525431   1.993   8.308   8.405 -0.0047  2.8020 -2.7384
   79MOL   H31625432   2.205   8.341   8.343 -0.4314 -0.1040 -0.4596
   79MOL   H31725433   2.425   8.034   8.134 -1.1567 -2.1618 -0.8972
   79MOL   H31825434   2.208   7.896   8.115 -2.7170 -0.9908  2.3191
   79MOL   H31925435   2.009   7.990   8.203 -0.8895  0.5881  1.3246
   79MOL   H32025436   1.918   8.351   8.157  0.5797  0.2165  0.4196
   79MOL   H32125437   1.838   8.191   8.169 -0.9067 -0.8463  1.4215
   79MOL   H32225438   1.765   8.313   8.243  0.0443  0.5748 -0.5649
   80MOL     C125439   0.636   3.948   3.772  0.0755 -0.5441 -0.4818
   80MOL     C225440   0.574   3.810   3.785  0.1229  0.2558 -0.0314
   80MOL     C325441   0.482   3.773   3.691 -0.1825 -0.6604  0.9097
   80MOL     C425442   0.428   3.642   3.684 -0.4117  0.3031 -0.2696
   80MOL    Cl525443   0.325   3.581   3.561  0.5928  0.0429 -0.2381
   80MOL     C625444   0.475   3.550   3.783 -0.6492  0.4008  0.4624
   80MOL     C725445   0.555   3.591   3.891  0.3382  0.0526 -0.1259
   80MOL     C825446   0.611   3.721   3.886 -0.3706 -0.1532 -0.1107
   80MOL     C925447   0.544   4.060   3.738  0.1914  0.3655 -0.0984
   80MOL    H1025448   0.719   3.936   3.703  1.1554 -0.7169  0.8247
   80MOL    H1125449   0.471   3.844   3.611  0.4237  0.3976  1.7410
   80MOL    H1225450   0.438   3.448   3.785  0.7219 -0.1006  1.0393
   80MOL    H1325451   0.580   3.518   3.966 -0.2436 -0.1826 -0.1529
   80MOL    H1425452   0.670   3.756   3.969 -2.9973  2.0807  0.8651
   80MOL    H1525453   0.514   4.052   3.634  1.7286 -2.8127 -0.3701
   80MOL    H1625454   0.452   4.054   3.796  0.2482 -2.2229 -0.2064
   80MOL    H1725455   0.683   3.969   3.868 -0.0156 -0.0090 -0.5519
   80MOL    C1825456   0.608   4.199   3.769 -0.3330  0.5633 -0.0817
   80MOL    C1925457   0.750   4.219   3.710 -0.2628 -0.4392  0.4472
   80MOL    C2025458   0.770   4.244   3.576 -0.1304  0.7785 -0.3216
   80MOL    C2125459   0.899   4.247   3.522 -0.4363 -0.4198 -0.0293
   80MOL   Cl2225460   0.923   4.245   3.351  0.6951 -0.4605  0.0855
   80MOL    C2325461   1.009   4.240   3.606 -0.8460 -0.5029 -0.7581
   80MOL    C2425462   0.991   4.237   3.751 -0.0509 -0.6710 -0.1977
   80MOL    C2525463   0.862   4.227   3.799  0.0230  0.0239 -0.6923
   80MOL    C2625464   0.516   4.318   3.736  0.1333  0.0725 -0.9018
   80MOL    H2725465   0.625   4.202   3.877 -1.3003  0.9244  0.0623
   80MOL    H2825466   0.686   4.245   3.508 -0.3031 -0.6019 -0.1371
   80MOL    H2925467   1.102   4.249   3.553 -0.7542 -1.9294 -0.8605
   80MOL    H3025468   1.073   4.266   3.816 -0.2083  0.5638 -0.5473
   80MOL    H3125469   0.851   4.219   3.906  1.3867  2.4447 -0.3427
   80MOL    H3225470   0.482   4.302   3.634  0.7681  0.2244 -1.1403
   80MOL    H3325471   0.422   4.299   3.787 -0.8072  0.1618 -2.5523
   80MOL    C3425472   0.563   4.462   3.769  0.2107 -0.0132  0.6840
   80MOL    C3525473   0.490   4.562   3.681  0.2104 -0.5719 -0.4649
   80MOL    C3625474   0.560   4.636   3.582 -0.7285  0.2353  0.0943
   80MOL    C3725475   0.484   4.737   3.520  0.0480 -0.1495  0.2253
   80MOL   Cl3825476   0.556   4.846   3.414 -0.0343 -0.0317 -0.1857
   80MOL    C3925477   0.348   4.755   3.544 -0.5834 -0.1523  0.0326
   80MOL    C4025478   0.279   4.671   3.628  0.2371 -0.1608  0.2780
   80MOL    C4125479   0.346   4.575   3.703  0.1890 -0.6666 -0.3260
   80MOL    C4225480   0.541   4.491   3.922  0.2019  0.6402  0.2485
   80MOL    H4325481   0.669   4.463   3.744 -0.0677 -2.9236 -0.9325
   80MOL    H4425482   0.665   4.625   3.560 -1.0416 -0.2147 -1.2178
   80MOL    H4525483   0.299   4.827   3.480 -1.3072 -1.0831 -0.4559
   80MOL    H4625484   0.173   4.675   3.650  0.2540  1.4288  0.1151
   80MOL    H4725485   0.289   4.511   3.769  0.3223  0.3213  0.7472
   80MOL    H4825486   0.436   4.510   3.939 -0.3774 -2.6704  0.6266
   80MOL    H4925487   0.575   4.406   3.981 -1.5358  1.9017  3.1059
   80MOL    C5025488   0.620   4.613   3.980 -0.3046 -0.1302  0.2184
   80MOL    C5125489   0.566   4.673   4.110  0.5549 -0.5128 -0.7883
   80MOL    C5225490   0.512   4.806   4.112 -0.3143  0.2132 -0.0364
   80MOL    C5325491   0.488   4.863   4.238  0.0884  0.0198  0.6830
   80MOL   Cl5425492   0.421   5.030   4.234 -0.4115 -0.4937 -0.0227
   80MOL    C5525493   0.508   4.794   4.360 -0.7836 -0.1540  0.7037
   80MOL    C5625494   0.555   4.656   4.356  0.3548 -0.1491  0.2548
   80MOL    C5725495   0.585   4.600   4.230  1.4363  0.7292  0.0888
   80MOL    C5825496   0.776   4.603   3.990 -0.2593 -0.1390 -0.4837
   80MOL    H5925497   0.617   4.695   3.908 -0.7866  0.7486  1.2203
   80MOL    H6025498   0.477   4.865   4.028 -1.0986  1.6187  1.2563
   80MOL    H6125499   0.489   4.844   4.455  2.6743  1.1815  0.7681
   80MOL    H6225500   0.572   4.609   4.452  0.7732  1.6031  1.0552
   80MOL    H6325501   0.624   4.499   4.230 -0.3663  0.0277 -0.2136
   80MOL    H6425502   0.798   4.516   4.052  1.8427  0.7419  0.0364
   80MOL    H6525503   0.818   4.591   3.890  1.6991  2.4073 -0.0288
   80MOL    C6625504   0.864   4.721   4.057 -0.6149  0.1178 -0.0030
   80MOL    C6725505   1.009   4.680   4.090  0.6451  0.0623 -0.4368
   80MOL    C6825506   1.095   4.638   3.986 -0.8602  0.0695 -0.0408
   80MOL    C6925507   1.232   4.611   4.000  0.2912 -0.7563  0.3465
   80MOL   Cl7025508   1.331   4.574   3.863  0.1215 -0.2789  0.2292
   80MOL    C7125509   1.279   4.619   4.133 -0.9830  0.1654  0.2462
   80MOL    C7225510   1.198   4.663   4.238 -0.1169  0.3167 -0.3134
   80MOL    C7325511   1.060   4.694   4.223  0.4132 -0.3089  0.3693
   80MOL    C7425512   0.871   4.848   3.971  0.4625 -0.4578  0.2557
   80MOL    H7525513   0.818   4.755   4.150  2.0091  0.7327  1.1384
   80MOL    H7625514   1.059   4.620   3.886 -0.5160  1.2102 -0.3769
   80MOL    H7725515   1.380   4.581   4.149 -1.3120 -0.7822  0.1325
   80MOL    H7825516   1.236   4.684   4.337 -1.8196  3.0050 -0.1650
   80MOL    H7925517   1.007   4.737   4.307  1.3685 -1.7829  1.7702
   80MOL    H8025518   0.942   4.835   3.890  0.2026  0.3459 -0.1065
   80MOL    H8125519   0.775   4.854   3.919  0.6865 -0.4415 -0.1568
   80MOL    C8225520   0.879   4.980   4.046 -0.1702 -0.2502  0.3063
   80MOL    C8325521   1.002   5.006   4.134  0.8647  0.3522  0.7673
   80MOL    C8425522   1.134   5.006   4.078 -0.1626  0.3193  0.1379
   80MOL    C8525523   1.250   5.018   4.157 -0.1563  0.0608  0.5793
   80MOL   Cl8625524   1.403   4.987   4.088  0.1227  0.2095 -0.1113
   80MOL    C8725525   1.233   5.037   4.292  0.1510 -0.2254  0.2895
   80MOL    C8825526   1.106   5.055   4.353 -0.0246  0.1514  0.7619
   80MOL    C8925527   0.990   5.040   4.270 -0.6285 -0.0944 -0.3597
   80MOL    C9025528   0.868   5.100   3.942  0.5048 -0.3832 -0.0318
   80MOL    H9125529   0.791   5.000   4.107 -1.4704  1.0567 -1.9233
   80MOL    H9225530   1.147   4.987   3.972 -1.6974 -1.0889  0.1812
   80MOL    H9325531   1.313   5.044   4.365  0.8816 -0.3470 -0.4945
   80MOL    H9425532   1.099   5.054   4.461  1.3785  0.4846  0.8617
   80MOL    H9525533   0.896   5.045   4.324 -0.4948 -0.3592 -0.1053
   80MOL    H9625534   0.966   5.144   3.925  0.7786 -0.1892  1.8942
   80MOL    H9725535   0.838   5.054   3.848 -1.5603  0.6747  0.0899
   80MOL    C9825536   0.785   5.223   3.977 -0.3048 -0.5551 -0.2486
   80MOL    C9925537   0.812   5.299   4.099  0.6438 -1.1747  0.1206
   80MOL   C10025538   0.699   5.339   4.184 -0.0390 -0.4879 -0.6218
   80MOL   C10125539   0.719   5.404   4.305 -0.2700 -0.4343  0.9088
   80MOL  Cl10225540   0.581   5.442   4.405 -0.1997  0.1284 -0.4764
   80MOL   C10325541   0.849   5.438   4.345 -0.3650 -0.1537  0.4394
   80MOL   C10425542   0.964   5.404   4.262  0.2013  0.1967 -1.0816
   80MOL   C10525543   0.941   5.340   4.137 -0.0052 -0.2404 -0.7204
   80MOL   C10625544   0.787   5.321   3.863  0.5672  0.3079 -0.0411
   80MOL   H10725545   0.681   5.192   3.987 -0.4777  0.3750  0.9957
   80MOL   H10825546   0.595   5.317   4.163 -0.3906  1.3796 -0.9624
   80MOL   H10925547   0.870   5.489   4.438 -1.0730 -1.0298  1.0906
   80MOL   H11025548   1.064   5.421   4.297 -0.2406  1.8737 -0.5987
   80MOL   H11125549   1.029   5.309   4.083  0.1244 -0.7786 -0.2047
   80MOL   H11225550   0.748   5.421   3.881 -1.1503  0.1159 -2.5076
   80MOL   H11325551   0.893   5.339   3.844  1.0142 -0.0474  1.9204
   80MOL   C11425552   0.713   5.269   3.734  0.3092  0.2886 -0.6896
   80MOL   C11525553   0.564   5.234   3.754  0.0191 -0.9524 -0.4604
   80MOL   C11625554   0.481   5.310   3.840  0.5819 -0.0757 -0.3012
   80MOL   C11725555   0.355   5.265   3.872  0.0235 -0.3215 -0.6459
   80MOL  Cl11825556   0.244   5.348   3.982  0.4622  0.1908 -0.0393
   80MOL   C11925557   0.304   5.145   3.819 -1.0874 -0.1595  0.1186
   80MOL   C12025558   0.377   5.071   3.726 -0.6559  0.0785 -0.2355
   80MOL   C12125559   0.505   5.118   3.697 -0.4540  0.1710  0.1932
   80MOL   C12225560   0.735   5.372   3.624  0.2034 -0.0656  0.3340
   80MOL   H12325561   0.754   5.178   3.691 -0.6381 -0.9477  0.9860
   80MOL   H12425562   0.522   5.397   3.889 -0.1882  0.6980 -1.0036
   80MOL   H12525563   0.201   5.125   3.845 -0.4158 -0.0266  3.0925
   80MOL   H12625564   0.334   4.980   3.686  0.9217 -1.1469  0.7943
   80MOL   H12725565   0.567   5.057   3.633  0.0954  0.8374  0.0793
   80MOL   H12825566   0.687   5.329   3.536 -1.1086 -0.5538  1.2601
   80MOL   H12925567   0.683   5.464   3.650  1.9890  1.0144  0.1381
   80MOL   C13025568   0.881   5.409   3.592  0.0778 -0.1589  0.0034
   80MOL   C13125569   0.971   5.283   3.558 -0.0518  0.1046  0.5447
   80MOL   C13225570   1.069   5.237   3.652  0.8494 -0.1931 -0.2898
   80MOL   C13325571   1.159   5.136   3.614  0.2548 -0.3147  0.2245
   80MOL  Cl13425572   1.272   5.072   3.727  0.1377 -0.3672  0.1932
   80MOL   C13525573   1.162   5.080   3.487 -0.0576 -0.5888  0.0714
   80MOL   C13625574   1.059   5.112   3.399 -0.1408 -0.2300 -0.8337
   80MOL   C13725575   0.970   5.219   3.433 -0.1334 -0.3447  0.9590
   80MOL   C13825576   0.896   5.506   3.476 -1.2946 -0.1431 -0.1385
   80MOL   H13925577   0.928   5.456   3.679 -1.0872  0.7853  0.1203
   80MOL   H14025578   1.066   5.279   3.752 -3.8415 -0.4934 -0.1621
   80MOL   H14125579   1.221   4.993   3.465 -2.4128 -2.4018  0.6956
   80MOL   H14225580   1.044   5.058   3.307 -0.8837 -2.7638  0.7165
   80MOL   H14325581   0.903   5.259   3.358  2.5176  1.3754 -0.5881
   80MOL   H14425582   0.833   5.467   3.396 -1.7902 -0.3647  0.3629
   80MOL   H14525583   0.841   5.598   3.498 -1.8160 -0.0613 -1.6734
   80MOL   C14625584   1.047   5.544   3.435 -0.0807  0.1464 -0.0441
   80MOL   C14725585   1.053   5.606   3.301 -0.5344 -0.1958 -0.2008
   80MOL   C14825586   1.000   5.731   3.272  0.1550 -0.1405 -0.1636
   80MOL   C14925587   1.010   5.784   3.142 -0.2547  0.3760 -0.5979
   80MOL  Cl15025588   0.955   5.946   3.113  0.5386 -0.4063  0.2113
   80MOL   C15125589   1.077   5.710   3.042  0.3027  0.1615 -0.4420
   80MOL   C15225590   1.134   5.586   3.073 -0.2146 -0.1736 -1.0423
   80MOL   C15325591   1.115   5.531   3.202 -0.4395  1.1862  0.6888
   80MOL   C15425592   1.123   5.624   3.542 -0.5685 -0.5296 -0.0460
   80MOL   H15525593   1.102   5.450   3.427 -1.5588 -0.6049 -1.5694
   80MOL   H15625594   0.945   5.775   3.354 -1.3696 -2.6951  0.2479
   80MOL   H15725595   1.092   5.740   2.939 -1.7633  0.3595 -0.7206
   80MOL   H15825596   1.186   5.531   2.996 -0.0654 -0.2554 -0.8824
   80MOL   H15925597   1.166   5.437   3.216  0.6206  1.3831 -1.5145
   80MOL   H16025598   1.140   5.723   3.499 -1.1305  0.1465  1.2577
   80MOL   H16125599   1.076   5.634   3.640 -0.0102  0.0307  0.1659
   80MOL   C16225600   1.259   5.567   3.584  0.1563 -0.2165 -0.2460
   80MOL   C16325601   1.350   5.529   3.473 -0.0004 -0.5355 -0.4129
   80MOL   C16425602   1.388   5.622   3.376 -0.0155  0.6931 -1.0818
   80MOL   C16525603   1.475   5.584   3.271  0.1035 -0.2456 -0.1121
   80MOL  Cl16625604   1.504   5.701   3.145  0.1718  0.6528  0.1274
   80MOL   C16725605   1.511   5.450   3.254 -0.4750  0.1649 -0.1810
   80MOL   C16825606   1.470   5.356   3.348 -0.0945  1.2196 -0.0688
   80MOL   C16925607   1.386   5.395   3.456 -0.2773 -0.3363  0.5111
   80MOL   C17025608   1.335   5.675   3.676 -0.4017  0.2495 -0.4900
   80MOL   H17125609   1.248   5.480   3.649  3.0746  0.5263  1.3388
   80MOL   H17225610   1.343   5.720   3.375  0.1191  0.7668 -0.4033
   80MOL   H17325611   1.574   5.428   3.169  0.2733  1.4716  0.0225
   80MOL   H17425612   1.493   5.251   3.344  0.1637  1.2341  0.7560
   80MOL   H17525613   1.369   5.318   3.530  2.9284  1.3206  3.0967
   80MOL   H17625614   1.370   5.756   3.612  1.5705 -2.0206 -2.3942
   80MOL   H17725615   1.267   5.711   3.753  0.3138 -1.9772  1.2262
   80MOL   C17825616   1.459   5.620   3.753  0.2437  0.6054  0.4099
   80MOL   C17925617   1.539   5.741   3.805  0.7398  0.4743 -0.1674
   80MOL   C18025618   1.636   5.802   3.723 -0.2071 -0.1007 -0.4567
   80MOL   C18125619   1.714   5.911   3.768 -0.0970 -0.8242  0.6871
   80MOL  Cl18225620   1.816   5.988   3.653  0.3315 -0.0378 -0.4271
   80MOL   C18325621   1.700   5.957   3.900  0.2834 -0.1539 -0.1585
   80MOL   C18425622   1.597   5.900   3.984  0.3242  0.1494  0.6353
   80MOL   C18525623   1.510   5.802   3.925 -0.3566 -0.5314 -0.5419
   80MOL   C18625624   1.419   5.524   3.864 -0.5450 -0.5668 -0.2006
   80MOL   H18725625   1.518   5.567   3.677  0.1655 -0.7258  1.2619
   80MOL   H18825626   1.650   5.774   3.620 -1.1317 -1.4792 -0.2119
   80MOL   H18925627   1.769   6.028   3.941 -1.2880  1.4412 -0.2267
   80MOL   H19025628   1.581   5.931   4.086 -2.1481  0.1000  0.2796
   80MOL   H19125629   1.429   5.762   3.983  0.6891 -1.5000  0.2689
   80MOL   H19225630   1.371   5.575   3.948  0.9142 -1.7156  1.3617
   80MOL   H19325631   1.337   5.457   3.837 -2.5463  1.0938  1.5748
   80MOL   C19425632   1.535   5.432   3.918 -0.3399  0.3429  0.0707
   80MOL   C19525633   1.545   5.415   4.069 -0.0689  0.4730  0.5556
   80MOL   C19625634   1.438   5.399   4.153  0.0843 -0.1036  0.8528
   80MOL   C19725635   1.458   5.384   4.290  0.5595 -0.6917 -0.6725
   80MOL  Cl19825636   1.326   5.371   4.399  0.2532 -0.4923  0.0945
   80MOL   C19925637   1.586   5.378   4.343  0.2299 -0.1286  0.7925
   80MOL   C20025638   1.697   5.396   4.259  0.2223 -0.5633 -0.7506
   80MOL   C20125639   1.679   5.413   4.123  1.1602  0.1754 -0.0682
   80MOL   C20225640   1.545   5.296   3.842 -0.8361  0.7826 -0.3668
   80MOL   H20325641   1.627   5.482   3.888 -0.1689  1.6812  2.7516
   80MOL   H20425642   1.339   5.390   4.110 -0.5338  1.7529  1.7958
   80MOL   H20525643   1.595   5.361   4.450  0.0979 -2.7346  0.4224
   80MOL   H20625644   1.795   5.402   4.303  0.1618 -1.0167 -0.5467
   80MOL   H20725645   1.768   5.418   4.062  0.6976  1.0463 -0.6933
   80MOL   H20825646   1.487   5.220   3.895 -1.8406  0.3382 -2.0631
   80MOL   H20925647   1.484   5.311   3.753 -0.7342 -0.4434 -0.6592
   80MOL   C21025648   1.687   5.253   3.802  0.2494  0.4883 -0.2433
   80MOL   C21125649   1.684   5.107   3.758 -0.0345 -0.2125 -0.4450
   80MOL   C21225650   1.613   5.075   3.642  0.2132 -0.1990  0.3907
   80MOL   C21325651   1.591   4.942   3.607 -0.3439 -0.6835  0.8157
   80MOL  Cl21425652   1.504   4.908   3.471  0.1691  0.1011 -0.1449
   80MOL   C21525653   1.647   4.836   3.677 -0.7306  0.2573 -0.3322
   80MOL   C21625654   1.723   4.871   3.794  0.2096  0.2457  0.2760
   80MOL   C21725655   1.743   5.006   3.837 -0.3521 -0.1109 -0.1155
   80MOL   C21825656   1.745   5.346   3.687 -0.4301 -0.5338  0.0178
   80MOL   H21925657   1.753   5.258   3.888 -0.7069  1.3491  0.4532
   80MOL   H22025658   1.574   5.159   3.586 -0.9575 -0.1129  1.3109
   80MOL   H22125659   1.626   4.734   3.650  0.8287 -0.5991  1.4901
   80MOL   H22225660   1.770   4.795   3.854  0.3577  0.7639  0.8184
   80MOL   H22325661   1.791   5.021   3.932  0.1296  0.1316 -0.3981
   80MOL   H22425662   1.674   5.354   3.604  0.3124  2.2955 -0.3960
   80MOL   H22525663   1.746   5.450   3.721 -0.6605 -1.0796  1.7764
   80MOL   C22625664   1.882   5.306   3.629  1.0953 -0.3718  0.1565
   80MOL   C22725665   1.924   5.382   3.499 -0.1803 -0.1190  0.3074
   80MOL   C22825666   1.926   5.302   3.386  0.2045 -0.7835 -0.1614
   80MOL   C22925667   1.943   5.358   3.259  0.4862  0.2094 -0.4422
   80MOL  Cl23025668   1.947   5.271   3.116  0.1155  0.2957  0.3891
   80MOL   C23125669   1.967   5.495   3.255  0.3603 -0.4542 -0.0024
   80MOL   C23225670   1.955   5.583   3.366  0.2630 -0.1729 -0.1681
   80MOL   C23325671   1.933   5.525   3.494  0.5945  0.6252  0.4418
   80MOL   C23425672   1.997   5.288   3.741  0.6821 -0.7691  0.1376
   80MOL   H23525673   1.866   5.205   3.591 -0.1360  0.1888 -0.8183
   80MOL   H23625674   1.919   5.195   3.388  1.9831 -0.9107 -0.4817
   80MOL   H23725675   2.000   5.533   3.160 -0.2414 -0.5299 -0.2474
   80MOL   H23825676   1.967   5.690   3.361 -0.1209 -0.0616  1.1534
   80MOL   H23925677   1.942   5.582   3.585  0.5460  1.8592 -0.3261
   80MOL   H24025678   2.021   5.382   3.791  1.3821 -1.3208  0.8456
   80MOL   H24125679   1.961   5.222   3.820  0.9602 -1.7558 -0.5428
   80MOL   C24225680   2.126   5.233   3.684 -0.0932  0.3015  0.1712
   80MOL   C24325681   2.257   5.288   3.741  0.3826 -0.0082 -1.0751
   80MOL   C24425682   2.320   5.233   3.856 -0.1687 -0.0697  0.8073
   80MOL   C24525683   2.434   5.284   3.908 -0.8751 -0.1578 -0.4068
   80MOL  Cl24625684   2.507   5.200   4.046 -0.1598  0.1827 -0.0180
   80MOL   C24725685   2.499   5.387   3.843  0.3034  0.2053 -0.0940
   80MOL   C24825686   2.442   5.445   3.726  0.3941 -0.7992  1.1497
   80MOL   C24925687   2.317   5.402   3.682 -0.0531  0.5881 -0.3385
   80MOL   C25025688   2.112   5.074   3.681 -0.2132 -0.1948 -1.2116
   80MOL   H25125689   2.131   5.270   3.582  0.1674  2.2403  0.8632
   80MOL   H25225690   2.266   5.150   3.901 -3.5265  0.2065 -2.4533
   80MOL   H25325691   2.599   5.421   3.863 -0.1071  0.8559  0.8738
   80MOL   H25425692   2.488   5.534   3.686  0.5866 -1.1569  0.5556
   80MOL   H25525693   2.262   5.456   3.607  2.1746  1.8069 -1.1363
   80MOL   H25625694   2.112   5.040   3.785 -0.0807  2.1300 -0.4237
   80MOL   H25725695   2.022   5.041   3.628 -1.0358 -0.5224  0.3322
   80MOL   C25825696   2.229   5.001   3.601 -0.1643 -0.0151 -0.6297
   80MOL   C25925697   2.243   4.851   3.636 -0.3268  0.3707 -0.6813
   80MOL   C26025698   2.366   4.778   3.605 -0.2144 -0.3313 -0.8288
   80MOL   C26125699   2.371   4.642   3.639 -0.0705 -0.3291  0.4773
   80MOL  Cl26225700   2.518   4.543   3.611 -0.1711 -0.0840  0.6004
   80MOL   C26325701   2.263   4.575   3.689 -0.5069 -0.6839 -0.0028
   80MOL   C26425702   2.143   4.636   3.713 -0.1378  0.0905 -0.2028
   80MOL   C26525703   2.134   4.777   3.690  0.1962  0.7720 -0.5126
   80MOL   C26625704   2.210   5.020   3.450 -0.2708 -0.5215 -0.7528
   80MOL   H26725705   2.321   5.045   3.638 -0.4391 -0.7229  0.9742
   80MOL   H26825706   2.452   4.838   3.581  0.7479 -1.8392 -1.1599
   80MOL   H26925707   2.272   4.470   3.709  0.8021 -0.2296  1.8858
   80MOL   H27025708   2.052   4.588   3.749  0.6322 -2.0972 -1.0652
   80MOL   H27125709   2.038   4.820   3.717  0.8648  2.6557 -1.0918
   80MOL   H27225710   2.214   4.924   3.399  3.5042  0.0714 -1.6899
   80MOL   H27325711   2.103   5.035   3.436 -0.2557  0.2150 -0.1441
   80MOL   C27425712   2.309   5.111   3.378  0.6283  1.2201 -0.6212
   80MOL   C27525713   2.456   5.072   3.404 -0.3256  0.0953  0.7602
   80MOL   C27625714   2.497   4.944   3.357 -0.3704  0.5288 -0.2061
   80MOL   C27725715   2.626   4.893   3.385 -0.2576 -0.0644 -0.1269
   80MOL  Cl27825716   2.679   4.740   3.321  0.0005 -0.0001 -0.4500
   80MOL   C27925717   2.707   4.973   3.467  0.5935  0.4646  0.0710
   80MOL   C28025718   2.667   5.103   3.513 -1.1144 -0.9737 -0.0335
   80MOL   C28125719   2.535   5.147   3.486 -0.6691  0.1170 -0.0900
   80MOL   C28225720   2.295   5.134   3.228 -0.0323 -0.1998 -0.0118
   80MOL   H28325721   2.294   5.209   3.424 -2.5155 -0.3209  1.8826
   80MOL   H28425722   2.424   4.881   3.307 -0.5568 -1.2409  2.2177
   80MOL   H28525723   2.805   4.934   3.494 -1.2465 -3.2624  1.7283
   80MOL   H28625724   2.731   5.172   3.567 -0.5266 -1.3863 -0.1924
   80MOL   H28725725   2.510   5.241   3.534  0.8685  0.4072  0.1745
   80MOL   H28825726   2.333   5.054   3.164  1.9418  0.4766  0.2800
   80MOL   H28925727   2.192   5.133   3.192  0.0558  1.5095 -0.3911
   80MOL   C29025728   2.335   5.276   3.181  0.6887 -0.1843 -0.4451
   80MOL   C29125729   2.481   5.321   3.217  0.3002 -0.0906 -0.1571
   80MOL   C29225730   2.505   5.427   3.299 -0.1896 -0.8196 -0.2227
   80MOL   C29325731   2.640   5.459   3.335  0.1639 -0.3261  0.5422
   80MOL  Cl29425732   2.672   5.585   3.446  0.4015 -0.4962 -0.0453
   80MOL   C29525733   2.743   5.380   3.292  0.4392 -0.5975 -0.5666
   80MOL   C29625734   2.720   5.272   3.203  0.7500 -0.5035  0.1361
   80MOL   C29725735   2.590   5.245   3.169  0.1301  0.4601 -0.1854
   80MOL   C29825736   2.307   5.283   3.027 -0.3165  0.9377 -0.0954
   80MOL   H29925737   2.263   5.347   3.222  0.4551 -0.0569 -1.0740
   80MOL   H30025738   2.419   5.487   3.326  0.3002  0.0099 -0.5014
   80MOL   H30125739   2.841   5.401   3.331  1.5675 -1.5168 -2.8285
   80MOL   H30225740   2.808   5.213   3.183  1.4909 -0.6639  3.6264
   80MOL   H30325741   2.579   5.167   3.096  0.7796  1.9768 -1.9388
   80MOL   H30425742   2.374   5.211   2.980 -0.4274 -1.7198  3.5623
   80MOL   H30525743   2.201   5.261   3.013 -0.3537 -0.8213  2.5670
   80MOL   C30625744   2.345   5.419   2.971 -0.3924 -0.2404  0.1873
   80MOL   C30725745   2.326   5.422   2.819  0.0724 -0.2436 -0.5505
   80MOL   C30825746   2.431   5.440   2.733 -0.2332 -0.3116  0.2265
   80MOL   C30925747   2.417   5.469   2.600  0.3486 -0.0354  0.1337
   80MOL  Cl31025748   2.553   5.493   2.498  0.2003  0.3870  0.2357
   80MOL   C31125749   2.286   5.474   2.546 -0.1663 -0.4689 -0.1414
   80MOL   C31225750   2.177   5.448   2.625  0.3799  0.0502 -0.0123
   80MOL   C31325751   2.192   5.431   2.764 -0.1254  0.0533 -0.9047
   80MOL   C31425752   2.268   5.547   3.022  0.1536 -0.0438  0.3808
   80MOL   H31525753   2.450   5.443   2.989 -0.5359  1.5906 -1.3052
   80MOL   H31625754   2.533   5.432   2.768 -0.6160 -0.0528  1.4212
   80MOL   H31725755   2.270   5.485   2.440 -0.1894 -0.1378 -0.1057
   80MOL   H31825756   2.078   5.449   2.580  0.6428  0.1636 -0.5913
   80MOL   H31925757   2.118   5.404   2.837  0.0930  0.9300 -0.3539
   80MOL   H32025758   2.286   5.627   2.951 -0.1296 -0.7035 -0.4348
   80MOL   H32125759   2.159   5.536   3.024 -0.1970  2.5761 -1.4569
   80MOL   H32225760   2.307   5.561   3.123  0.1177 -0.3621  0.4384
   81MOL     C125761   7.497   4.441   7.588 -0.5847  0.5950  0.0617
   81MOL     C225762   7.562   4.472   7.450 -0.6589  0.2693 -0.8667
   81MOL     C325763   7.707   4.480   7.444  0.4170  0.3242  0.3471
   81MOL     C425764   7.774   4.482   7.319  0.9651 -0.7024 -0.3646
   81MOL    Cl525765   7.946   4.507   7.305 -0.1703  0.0271  0.1642
   81MOL     C625766   7.697   4.493   7.197 -0.3525 -0.2405  0.3102
   81MOL     C725767   7.559   4.493   7.202 -0.1337 -0.3021  0.6148
   81MOL     C825768   7.489   4.481   7.327  0.6652  0.4487  0.8610
   81MOL     C925769   7.453   4.293   7.607  0.6047  0.2092 -0.6814
   81MOL    H1025770   7.418   4.512   7.614 -0.2825  0.5645  1.0534
   81MOL    H1125771   7.770   4.472   7.532 -0.8579 -0.0567  1.2384
   81MOL    H1225772   7.728   4.491   7.093 -0.2394  0.2992  0.3333
   81MOL    H1325773   7.508   4.493   7.107 -0.7724 -0.0664  0.9598
   81MOL    H1425774   7.382   4.464   7.324  0.6544  0.6514  0.0219
   81MOL    H1525775   7.435   4.300   7.715  2.3778 -0.1676 -0.3499
   81MOL    H1625776   7.360   4.290   7.550 -0.6371 -1.2113  1.3402
   81MOL    H1725777   7.568   4.467   7.667 -1.0758  0.8915  0.4093
   81MOL    C1825778   7.553   4.187   7.576  0.3645  0.3357  0.2496
   81MOL    C1925779   7.683   4.208   7.649 -0.1793  0.4256  0.5633
   81MOL    C2025780   7.800   4.179   7.577  0.0790 -0.1523 -0.4450
   81MOL    C2125781   7.926   4.184   7.637  1.0611  0.2664 -0.7100
   81MOL   Cl2225782   8.060   4.127   7.546 -0.0203  0.2342 -0.1783
   81MOL    C2325783   7.938   4.226   7.770 -0.1899 -0.0523 -0.2061
   81MOL    C2425784   7.823   4.260   7.845  0.1689  0.3246  0.2567
   81MOL    C2525785   7.697   4.253   7.786 -0.0284 -0.0952  0.3233
   81MOL    C2625786   7.504   4.045   7.609  0.4557 -0.3021  0.4509
   81MOL    H2725787   7.568   4.186   7.468 -0.0176 -0.1246  0.2013
   81MOL    H2825788   7.794   4.144   7.475  0.1443 -0.4492 -0.3460
   81MOL    H2925789   8.025   4.230   7.835 -0.1786  0.5373 -0.2569
   81MOL    H3025790   7.829   4.303   7.944  0.0970 -1.3709  1.0268
   81MOL    H3125791   7.612   4.283   7.846 -0.5235  0.3350 -0.5852
   81MOL    H3225792   7.584   3.976   7.580  0.7577  0.0535  0.4348
   81MOL    H3325793   7.490   4.039   7.717 -0.7896  1.9293  0.4442
   81MOL    C3425794   7.372   3.999   7.541  0.2360  0.5211  0.3061
   81MOL    C3525795   7.381   4.031   7.393 -0.3912  0.4379 -0.1435
   81MOL    C3625796   7.477   3.973   7.306  0.8607 -0.1209  0.5531
   81MOL    C3725797   7.503   4.027   7.178  1.1073 -0.0659 -0.2009
   81MOL   Cl3825798   7.635   3.971   7.083 -0.4524  0.3737 -0.2820
   81MOL    C3925799   7.424   4.128   7.128  0.0036 -0.0858 -0.1729
   81MOL    C4025800   7.310   4.172   7.205 -0.1687 -0.2213 -0.7912
   81MOL    C4125801   7.288   4.123   7.338  0.3740  0.4352  0.0291
   81MOL    C4225802   7.327   3.841   7.565  0.0998 -0.4474  0.3251
   81MOL    H4325803   7.304   4.069   7.590 -1.2219  0.9004 -2.1599
   81MOL    H4425804   7.553   3.906   7.342  1.8909  0.1520 -1.0412
   81MOL    H4525805   7.436   4.162   7.026  1.2192 -0.7342 -0.2458
   81MOL    H4625806   7.246   4.251   7.168 -0.3741  0.0104  0.0576
   81MOL    H4725807   7.205   4.160   7.397 -0.4631  0.8485 -1.3777
   81MOL    H4825808   7.271   3.815   7.475  2.3893  0.8353 -1.5446
   81MOL    H4925809   7.414   3.776   7.578  1.3538  1.0829 -0.2483
   81MOL    C5025810   7.236   3.818   7.688 -0.2259  0.3916 -0.0668
   81MOL    C5125811   7.114   3.909   7.695 -0.1658  0.0036 -0.3092
   81MOL    C5225812   7.039   3.936   7.580 -0.5940 -0.0893 -0.2369
   81MOL    C5325813   6.929   4.026   7.583 -0.4658 -0.4473 -0.0284
   81MOL   Cl5425814   6.823   4.058   7.446 -0.2253 -0.1616  0.3721
   81MOL    C5525815   6.909   4.104   7.702  0.3173 -0.1009 -0.0345
   81MOL    C5625816   6.983   4.078   7.818 -0.0361 -0.3497 -0.2803
   81MOL    C5725817   7.085   3.980   7.810 -0.1447 -0.8324  0.4692
   81MOL    C5825818   7.200   3.670   7.698  0.9107 -0.7459 -0.2942
   81MOL    H5925819   7.294   3.827   7.779 -0.0382  1.4208 -0.2782
   81MOL    H6025820   7.048   3.879   7.489  1.9623 -2.2210  1.2582
   81MOL    H6125821   6.826   4.173   7.704  0.5309  0.1573 -0.1759
   81MOL    H6225822   6.985   4.134   7.911 -1.7028 -0.7947  0.0346
   81MOL    H6325823   7.141   3.960   7.900  1.0070  1.9440  0.4039
   81MOL    H6425824   7.156   3.641   7.603 -0.5051 -0.9807  0.4140
   81MOL    H6525825   7.288   3.609   7.715  1.4123 -0.1496 -0.7455
   81MOL    C6625826   7.099   3.627   7.810 -0.5273  0.4392 -0.1309
   81MOL    C6725827   7.050   3.484   7.794  0.0156 -0.6645 -0.3862
   81MOL    C6825828   7.120   3.383   7.724 -0.0975  0.2921 -0.0013
   81MOL    C6925829   7.061   3.261   7.693  0.8301 -0.4205  0.2802
   81MOL   Cl7025830   7.152   3.145   7.607  0.3692  0.5391 -0.2143
   81MOL    C7125831   6.932   3.232   7.740  0.6427 -0.0194 -0.1106
   81MOL    C7225832   6.863   3.325   7.815  0.7247 -0.3311 -0.2885
   81MOL    C7325833   6.914   3.456   7.830 -0.3959  0.1409 -0.4693
   81MOL    C7425834   7.160   3.652   7.947  0.1462 -0.0935  0.1408
   81MOL    H7525835   7.011   3.692   7.806 -0.2941  0.7128 -1.0589
   81MOL    H7625836   7.216   3.411   7.682 -0.3453  2.2538  0.6485
   81MOL    H7725837   6.893   3.133   7.728 -1.3798  0.5232  1.5618
   81MOL    H7825838   6.770   3.306   7.867  3.3471 -0.5081  4.5653
   81MOL    H7925839   6.859   3.530   7.887  0.1188  0.3860 -0.2918
   81MOL    H8025840   7.246   3.588   7.965 -0.9690 -1.7220 -0.1762
   81MOL    H8125841   7.204   3.751   7.945  0.0325 -0.0523 -0.8798
   81MOL    C8225842   7.072   3.653   8.076  0.2143  0.2012  0.0448
   81MOL    C8325843   7.156   3.619   8.198 -0.1424 -0.3140 -0.2375
   81MOL    C8425844   7.135   3.500   8.274  0.0202 -0.2394 -0.3981
   81MOL    C8525845   7.225   3.469   8.379 -0.9960 -0.1970  0.2490
   81MOL   Cl8625846   7.188   3.344   0.050  0.0614 -0.0302  0.4801
   81MOL    C8725847   7.334   3.551   8.404 -0.5381  0.0418  0.6040
   81MOL    C8825848   7.362   3.666   8.326 -0.2714  1.0709  0.0297
   81MOL    C8925849   7.271   3.696   8.224  0.4793 -0.2776  0.1135
   81MOL    C9025850   6.982   3.787   8.077 -0.3160  0.0482  0.1566
   81MOL    H9125851   7.002   3.569   8.065 -0.4868  0.6438  1.0305
   81MOL    H9225852   7.045   3.449   8.246 -0.3779 -0.8532  1.8737
   81MOL    H9325853   7.405   3.535   0.048 -0.1995  0.5405  0.3996
   81MOL    H9425854   7.446   3.731   8.347 -0.4443  1.6194 -0.9540
   81MOL    H9525855   7.303   3.783   8.170  1.4760 -1.5934 -1.4529
   81MOL    H9625856   7.037   3.871   8.120 -3.1413  2.0303  0.0228
   81MOL    H9725857   6.959   3.811   7.973  5.6340 -0.1464 -1.4045
   81MOL    C9825858   6.855   3.765   8.157 -0.2741 -0.2451  0.9706
   81MOL    C9925859   6.872   3.707   8.300  0.3652 -0.0085 -0.2523
   81MOL   C10025860   6.933   3.789   8.401  0.0738  0.3929  0.7386
   81MOL   C10125861   6.943   3.744   0.099 -0.9290 -0.1106  0.2526
   81MOL  Cl10225862   6.990   3.846   0.229  0.1862  0.0328  0.1205
   81MOL   C10325863   6.892   3.614   0.133 -0.6821  0.6372 -0.0296
   81MOL   C10425864   6.829   3.531   0.036 -0.7078  0.0191 -0.3028
   81MOL   C10525865   6.816   3.578   8.337  0.3061 -0.4913 -0.1170
   81MOL   C10625866   6.748   3.878   8.154 -0.0526 -0.8165 -0.1686
   81MOL   H10725867   6.806   3.679   8.110  1.0271  0.6250 -2.0799
   81MOL   H10825868   6.977   3.885   8.376  0.9415 -0.1869 -0.0242
   81MOL   H10925869   6.899   3.581   0.235 -1.6225 -1.4242 -0.6103
   81MOL   H11025870   6.807   3.430   0.066 -0.0823 -0.1370 -0.3570
   81MOL   H11125871   6.796   3.506   8.260  0.3328 -1.3578  0.6739
   81MOL   H11225872   6.751   3.934   8.247 -2.0270 -0.8452 -0.0617
   81MOL   H11325873   6.776   3.952   8.079 -1.4739 -1.4406 -1.3423
   81MOL   C11425874   6.608   3.829   8.126  0.1539  0.5008 -0.1747
   81MOL   C11525875   6.603   3.767   7.981 -0.4315  0.2631  0.3819
   81MOL   C11625876   6.556   3.636   7.950  0.3532 -0.2172  0.2718
   81MOL   C11725877   6.552   3.588   7.821  0.3765  0.2483  0.4346
   81MOL  Cl11825878   6.534   3.415   7.783  0.0173 -0.3927  0.3329
   81MOL   C11925879   6.591   3.673   7.717  0.1028  1.2932  0.5559
   81MOL   C12025880   6.639   3.800   7.741  0.0912 -0.0982 -0.4654
   81MOL   C12125881   6.645   3.841   7.872 -0.1798 -0.5483 -0.2243
   81MOL   C12225882   6.530   3.749   8.226  0.1548  0.0215  0.5039
   81MOL   H12325883   6.553   3.923   8.125 -1.6820 -0.4851  2.1396
   81MOL   H12425884   6.536   3.567   8.031  0.4967 -0.0831  0.4228
   81MOL   H12525885   6.589   3.639   7.614 -0.6640  2.1229  0.2848
   81MOL   H12625886   6.680   3.868   7.667 -0.0403  1.8276  1.1665
   81MOL   H12725887   6.687   3.940   7.874 -2.1377  0.2916  0.4712
   81MOL   H12825888   6.423   3.739   8.210  0.1990 -1.9668  1.2645
   81MOL   H12925889   6.566   3.646   8.233 -0.9004 -0.3308  0.8339
   81MOL   C13025890   6.523   3.811   8.374  0.0423  0.0444  0.3289
   81MOL   C13125891   6.507   3.956   8.395 -1.1361 -0.7183 -0.3382
   81MOL   C13225892   6.611   4.035   0.017  0.4825 -0.9081  0.2688
   81MOL   C13325893   6.600   4.176   0.029 -0.2884 -0.5266 -0.9675
   81MOL  Cl13425894   6.729   4.277   0.083  0.4791 -0.1643  0.1782
   81MOL   C13525895   6.480   4.234   8.425 -0.4191 -0.2088  0.1358
   81MOL   C13625896   6.367   4.161   8.383 -0.1888 -0.0271  0.0290
   81MOL   C13725897   6.388   4.021   8.361  0.0002 -0.2797 -0.4336
   81MOL   C13825898   6.418   3.718   0.012 -0.4699  0.4917  0.5286
   81MOL   H13925899   6.621   3.790   8.416 -0.9234  0.2675  2.7907
   81MOL   H14025900   6.693   3.982   0.064  1.3882  1.0855  1.0172
   81MOL   H14125901   6.462   4.341   8.432 -0.0623 -0.1184 -0.3416
   81MOL   H14225902   6.270   4.202   8.363  0.1443  1.3915  1.2776
   81MOL   H14325903   6.308   3.955   8.332 -0.8889  0.1242  1.0622
   81MOL   H14425904   6.311   3.735   8.432 -0.3682  0.2911 -0.4719
   81MOL   H14525905   6.423   3.616   8.408  0.8159  0.4912  0.6744
   81MOL   C14625906   6.433   3.696   0.163  0.0715  0.3636  0.1578
   81MOL   C14725907   6.456   3.819   0.255 -0.2534  0.0810 -0.1271
   81MOL   C14825908   6.581   3.819   0.327 -0.1253  0.4694  0.0125
   81MOL   C14925909   6.619   3.927   0.403  0.0418  0.7804 -0.8055
   81MOL  Cl15025910   6.775   3.939   0.474  0.4317  0.0422  0.2576
   81MOL   C15125911   6.529   4.032   0.426  0.8611  0.0708  0.1768
   81MOL   C15225912   6.407   4.038   0.349 -0.0604  0.3633  0.4398
   81MOL   C15325913   6.373   3.930   0.266 -0.1709 -0.0115 -0.0567
   81MOL   C15425914   6.305   3.626   0.222  0.4801  0.3118 -0.1547
   81MOL   H15525915   6.520   3.633   0.185 -0.0696 -0.9091 -2.7272
   81MOL   H15625916   6.650   3.737   0.311 -0.3057  0.6496 -1.7639
   81MOL   H15725917   6.545   4.119   0.488  2.0287 -1.0049  1.4240
   81MOL   H15825918   6.349   4.129   0.351 -1.3400 -0.3663 -1.5620
   81MOL   H15925919   6.277   3.939   0.217  0.3751  0.4744 -1.0319
   81MOL   H16025920   6.310   3.608   0.329  1.0003 -0.1454 -0.2569
   81MOL   H16125921   6.227   3.702   0.210  1.2098  1.2562  1.0371
   81MOL   C16225922   6.251   3.506   0.147 -0.1527  0.7486  0.6025
   81MOL   C16325923   6.358   3.396   0.132 -0.5585 -1.0259 -0.7241
   81MOL   C16425924   6.421   3.342   0.249  0.1669  0.2283 -0.2054
   81MOL   C16525925   6.501   3.222   0.239  0.2223 -0.0947 -0.2892
   81MOL  Cl16625926   6.571   3.150   0.386 -0.1419 -0.4104  0.2680
   81MOL   C16725927   6.522   3.158   0.113 -0.8576  0.1243 -0.2974
   81MOL   C16825928   6.463   3.221   8.432  0.1449 -0.1319 -0.2058
   81MOL   C16925929   6.373   3.330   0.012 -0.5324  0.6511 -0.3330
   81MOL   C17025930   6.118   3.457   0.206  0.4062 -0.0005  0.7692
   81MOL   H17125931   6.226   3.536   0.046 -0.5537  0.1297  0.5180
   81MOL   H17225932   6.402   3.388   0.345 -1.7807 -3.0039  1.0145
   81MOL   H17325933   6.576   3.065   0.106  1.9935  1.9117 -3.4086
   81MOL   H17425934   6.466   3.177   8.333 -0.3009  0.4139 -0.4656
   81MOL   H17525935   6.310   3.351   8.362 -0.1798 -1.8978 -1.2833
   81MOL   H17625936   6.150   3.408   0.297 -1.4316 -1.5553  0.6274
   81MOL   H17725937   6.050   3.540   0.227 -1.0150 -0.4486 -1.8448
   81MOL   C17825938   6.039   3.348   0.123  0.4330 -0.2383 -0.0374
   81MOL   C17925939   5.924   3.291   0.197 -0.7080  0.2235 -0.6254
   81MOL   C18025940   5.827   3.375   0.255  0.4918 -0.0915 -0.3912
   81MOL   C18125941   5.711   3.314   0.309 -0.0850 -0.6547  0.6999
   81MOL  Cl18225942   5.602   3.424   0.387 -0.2185  0.3190  0.2229
   81MOL   C18325943   5.693   3.181   0.319  0.2942 -0.2439 -0.6822
   81MOL   C18425944   5.784   3.097   0.259  0.4695 -0.4981  0.6726
   81MOL   C18525945   5.902   3.153   0.201 -0.2662  0.4296 -0.2179
   81MOL   C18625946   5.995   3.399   8.417 -0.8649 -0.8968  0.2890
   81MOL   H18725947   6.115   3.272   0.108  0.9975  0.0945  1.1040
   81MOL   H18825948   5.838   3.482   0.257  1.1261 -0.1580 -0.2351
   81MOL   H18925949   5.603   3.159   0.374 -1.1006  1.7120 -2.1501
   81MOL   H19025950   5.767   2.991   0.244 -1.1526 -0.2375  0.5406
   81MOL   H19125951   5.974   3.087   0.156 -0.2815  0.3725 -0.1574
   81MOL   H19225952   5.934   3.489   8.418 -0.0944 -0.0950 -5.9197
   81MOL   H19325953   6.082   3.446   8.370 -1.9176  1.7909  0.9511
   81MOL   C19425954   5.939   3.286   8.328  0.3613 -0.3745 -0.4350
   81MOL   C19525955   5.788   3.256   8.354 -0.0058 -0.1444 -0.2683
   81MOL   C19625956   5.745   3.123   8.371  0.4134 -0.1759 -0.2713
   81MOL   C19725957   5.611   3.096   8.400  0.3053  0.9759 -0.1363
   81MOL  Cl19825958   5.571   2.924   8.419 -0.1987  0.2414 -0.7159
   81MOL   C19925959   5.514   3.200   8.402  1.0021  0.5574 -0.0797
   81MOL   C20025960   5.556   3.332   8.381 -0.4688 -0.1866 -0.0522
   81MOL   C20125961   5.695   3.357   8.364  0.5536  0.4655 -0.6061
   81MOL   C20225962   5.984   3.305   8.177  0.0438 -0.1668 -0.1997
   81MOL   H20325963   5.996   3.200   8.362 -1.1018 -0.4593  1.9045
   81MOL   H20425964   5.813   3.042   8.351  1.8479  0.7672  0.7387
   81MOL   H20525965   5.419   3.174   0.012 -0.3656  0.6617 -2.7924
   81MOL   H20625966   5.482   3.409   8.397 -1.6703 -1.6878  1.7867
   81MOL   H20725967   5.725   3.461   8.365 -1.0712  0.9584 -1.7097
   81MOL   H20825968   5.954   3.406   8.148 -0.9122 -1.5218 -4.1731
   81MOL   H20925969   6.092   3.292   8.182  0.1041  0.5964  0.7507
   81MOL   C21025970   5.923   3.208   8.078  0.1626  0.1115 -0.2920
   81MOL   C21125971   5.798   3.266   8.016  0.5345 -0.2900 -0.6250
   81MOL   C21225972   5.815   3.375   7.926  0.2894 -0.8713 -0.0169
   81MOL   C21325973   5.706   3.439   7.873 -0.4904  0.1269 -0.1586
   81MOL  Cl21425974   5.735   3.570   7.766  0.3376  0.1079  0.1127
   81MOL   C21525975   5.573   3.393   7.906 -0.6351  0.4902 -0.5068
   81MOL   C21625976   5.562   3.276   7.981 -0.0728  1.0293 -0.6356
   81MOL   C21725977   5.672   3.208   8.038  0.1470 -0.1724 -0.2491
   81MOL   C21825978   6.023   3.170   7.971 -1.0583 -0.0187 -0.2433
   81MOL   H21925979   5.887   3.114   8.122  0.8918 -0.3128 -0.5892
   81MOL   H22025980   5.916   3.407   7.906  0.6234 -1.7213  0.2816
   81MOL   H22125981   5.492   3.444   7.857  0.1241  0.7619 -1.5008
   81MOL   H22225982   5.462   3.242   8.006  0.0164  0.2025 -1.3972
   81MOL   H22325983   5.660   3.111   8.084  0.0428 -0.5651 -1.0943
   81MOL   H22425984   5.958   3.104   7.914 -2.1429  2.0796 -1.4799
   81MOL   H22525985   6.059   3.246   7.903 -0.2344  0.7357  1.0136
   81MOL   C22625986   6.139   3.076   8.012 -0.2540  0.4678 -0.5176
   81MOL   C22725987   6.109   2.991   8.127 -0.1751 -0.4010 -0.9303
   81MOL   C22825988   6.200   2.995   8.241 -0.0844  0.4276 -0.0163
   81MOL   C22925989   6.176   2.922   8.350 -0.3613  0.1950 -0.1008
   81MOL  Cl23025990   6.278   2.950   0.051  0.5364 -0.1940  0.2670
   81MOL   C23125991   6.069   2.829   8.355 -0.2262 -0.3501 -0.2855
   81MOL   C23225992   5.996   2.808   8.233 -0.3775  0.7131 -0.2364
   81MOL   C23325993   6.006   2.891   8.121 -0.1094 -0.9275  0.0352
   81MOL   C23425994   6.213   2.997   7.899  0.9278 -0.1365 -0.2769
   81MOL   H23525995   6.214   3.146   8.050  0.3914 -0.1829 -0.5725
   81MOL   H23625996   6.289   3.057   8.247 -0.4217  0.8701  0.4501
   81MOL   H23725997   6.052   2.768   0.008 -1.6948 -0.1940 -0.4395
   81MOL   H23825998   5.925   2.727   8.238  1.5757 -0.9832  1.1275
   81MOL   H23925999   5.948   2.883   8.030 -0.4802  0.3898  0.1506
   81MOL   H24026000   6.219   2.893   7.928 -3.2595 -0.7755 -1.4721
   81MOL   H24126001   6.157   3.005   7.806  0.3521  0.7613  0.1386
   81MOL   C24226002   6.357   3.054   7.871 -1.2755 -0.1517  0.1951
   81MOL   C24326003   6.456   3.039   7.983 -0.4301 -0.0929 -0.5681
   81MOL   C24426004   6.520   3.149   8.036  0.0010 -0.5100  0.9234
   81MOL   C24526005   6.619   3.137   8.131 -0.1585  1.0086  1.1435
   81MOL  Cl24626006   6.701   3.276   8.173  0.1710  0.1639 -0.2970
   81MOL   C24726007   6.655   3.010   8.179 -0.2075 -0.0234  0.3967
   81MOL   C24826008   6.589   2.899   8.132 -0.0553  0.4738  0.3412
   81MOL   C24926009   6.488   2.915   8.034 -0.0282 -0.3683  0.0019
   81MOL   C25026010   6.419   2.978   7.744  0.7566 -0.2681 -0.0123
   81MOL   H25126011   6.346   3.161   7.858 -1.6079 -0.3521 -1.1511
   81MOL   H25226012   6.502   3.242   7.984  0.0376 -1.0681 -0.0801
   81MOL   H25326013   6.738   3.002   8.247 -2.1750  0.0556  2.8465
   81MOL   H25426014   6.619   2.800   8.163 -0.0135  0.4283  0.1513
   81MOL   H25526015   6.446   2.824   7.995 -0.9598 -0.5144  1.3099
   81MOL   H25626016   6.520   3.017   7.740  1.0641 -0.9797  0.6559
   81MOL   H25726017   6.418   2.871   7.767  0.9261 -0.4904 -1.0123
   81MOL   C25826018   6.358   2.996   7.602 -0.3168 -0.2772 -0.6146
   81MOL   C25926019   6.355   3.137   7.554 -0.2482 -0.4904 -0.0572
   81MOL   C26026020   6.244   3.220   7.578 -0.8354  0.1470  0.2591
   81MOL   C26126021   6.235   3.349   7.531  0.1834 -0.0824 -0.4757
   81MOL  Cl26226022   6.100   3.446   7.566  0.1913  0.1015 -0.0720
   81MOL   C26326023   6.347   3.405   7.462 -0.5824  0.4103  0.4918
   81MOL   C26426024   6.459   3.322   7.441  0.0125 -0.0960  0.3658
   81MOL   C26526025   6.470   3.187   7.489 -1.0330 -0.2387  0.4093
   81MOL   C26626026   6.414   2.893   7.500 -0.2711  0.5583  0.5225
   81MOL   H26726027   6.255   2.962   7.605 -0.5679  0.3915 -1.3276
   81MOL   H26826028   6.165   3.177   7.638  0.2363 -0.2342  1.4207
   81MOL   H26926029   6.346   3.505   7.422  1.5185  0.9955  1.8046
   81MOL   H27026030   6.536   3.358   7.374  0.2934 -0.0470  0.7086
   81MOL   H27126031   6.560   3.129   7.475  0.6434  2.3711 -0.1502
   81MOL   H27226032   6.394   2.925   7.398  2.4488 -0.2610 -0.3237
   81MOL   H27326033   6.521   2.906   7.514 -0.2691  0.5307  0.5323
   81MOL   C27426034   6.388   2.745   7.522 -0.6140 -0.6158  0.6197
   81MOL   C27526035   6.259   2.708   7.460  0.1012 -0.6000 -0.2634
   81MOL   C27626036   6.145   2.724   7.546 -0.2849 -0.3098  0.4018
   81MOL   C27726037   6.021   2.691   7.498  1.1774  0.2524 -0.0223
   81MOL  Cl27826038   5.885   2.716   7.599  0.2229  0.2055 -0.3390
   81MOL   C27926039   5.998   2.646   7.367 -0.5175  0.7238  0.0413
   81MOL   C28026040   6.111   2.634   7.283 -0.5390  0.2180  0.7236
   81MOL   C28126041   6.242   2.654   7.335 -0.6307 -0.4666 -0.0698
   81MOL   C28226042   6.513   2.664   7.485 -0.2392  0.5320  0.3600
   81MOL   H28326043   6.373   2.730   7.629  0.8620 -0.2351  0.8968
   81MOL   H28426044   6.150   2.770   7.644  1.0293  0.3479  0.0308
   81MOL   H28526045   5.901   2.615   7.333  0.1184 -1.2904  0.0253
   81MOL   H28626046   6.103   2.613   7.177 -0.8665  2.0262  0.3633
   81MOL   H28726047   6.332   2.652   7.275  0.9891 -0.7645  2.2721
   81MOL   H28826048   6.475   2.573   7.440 -1.1248  1.5449 -0.9774
   81MOL   H28926049   6.570   2.709   7.404 -0.8263  0.4668 -0.0912
   81MOL   C29026050   6.610   2.645   7.599 -0.8029  0.4600 -0.4321
   81MOL   C29126051   6.560   2.527   7.688 -0.1658 -1.0717  0.3990
   81MOL   C29226052   6.575   2.390   7.653  0.3736  0.1442  0.3473
   81MOL   C29326053   6.549   2.283   7.735  0.0037 -0.7539  0.9862
   81MOL  Cl29426054   6.581   2.117   7.709 -0.1676 -0.1491  0.3462
   81MOL   C29526055   6.495   2.319   7.859 -0.1047 -0.0391  0.1807
   81MOL   C29626056   6.469   2.449   7.899  0.7584  0.1793  0.9298
   81MOL   C29726057   6.500   2.555   7.812 -0.1084  0.4744  0.8326
   81MOL   C29826058   6.752   2.614   7.546  0.1976  0.4073 -0.1007
   81MOL   H29926059   6.607   2.734   7.661  2.1129 -0.6680  1.4360
   81MOL   H30026060   6.621   2.366   7.559 -2.2495 -2.6906 -0.2611
   81MOL   H30126061   6.459   2.233   7.914  0.6628 -1.3605 -1.3172
   81MOL   H30226062   6.424   2.477   7.994  1.6268  1.3122  1.0285
   81MOL   H30326063   6.472   2.657   7.831 -1.1762  0.3068  0.2204
   81MOL   H30426064   6.760   2.528   7.480  2.9758  1.0160 -0.6227
   81MOL   H30526065   6.778   2.703   7.488 -1.2092  1.4749  0.8719
   81MOL   C30626066   6.857   2.588   7.655 -0.1798  0.5569 -0.1270
   81MOL   C30726067   6.967   2.500   7.590  0.0553 -0.6184 -0.0293
   81MOL   C30826068   6.963   2.363   7.607 -0.2764 -0.6035  0.2589
   81MOL   C30926069   7.042   2.281   7.524  0.1725 -0.1186 -0.3603
   81MOL  Cl31026070   7.028   2.105   7.527 -0.4262  0.1756 -0.6124
   81MOL   C31126071   7.131   2.341   7.425  0.1405 -0.2797  0.1195
   81MOL   C31226072   7.143   2.482   7.415 -0.9074  0.1176 -0.1311
   81MOL   C31326073   7.050   2.556   7.492  0.5428  1.0477 -0.3687
   81MOL   C31426074   6.904   2.715   7.722 -0.6107 -0.0235  0.3050
   81MOL   H31526075   6.822   2.531   7.741  2.0404  1.2367  1.2791
   81MOL   H31626076   6.885   2.322   7.669 -1.4029  2.0826  0.6545
   81MOL   H31726077   7.191   2.286   7.354  0.0642  1.6465 -1.4521
   81MOL   H31826078   7.205   2.529   7.341 -1.5451  3.2558  1.2464
   81MOL   H31926079   7.045   2.661   7.466  0.0783  1.6322  1.9962
   81MOL   H32026080   6.988   2.697   7.789 -2.9752  1.6785  3.9037
   81MOL   H32126081   6.947   2.791   7.657 -0.2970  0.4774  1.0835
   81MOL   H32226082   6.815   2.757   7.770 -1.3539 -0.2677 -0.8327
   82MOL     C126083   6.959   7.062   7.790 -0.6050 -0.2552 -0.1092
   82MOL     C226084   6.914   6.961   7.890  0.7146  0.1531 -0.3230
   82MOL     C326085   6.966   6.832   7.876  0.3284 -0.7652  0.1131
   82MOL     C426086   6.931   6.729   7.965  0.7134 -0.5254  0.1235
   82MOL    Cl526087   7.006   6.579   7.943  0.1223 -0.5261  0.2846
   82MOL     C626088   6.829   6.755   8.058  0.4779  0.7108  0.2186
   82MOL     C726089   6.776   6.881   8.075 -0.2202  0.1421  0.6483
   82MOL     C826090   6.820   6.986   7.991  0.2846 -0.2690  0.3091
   82MOL     C926091   6.893   7.204   7.808  0.0816  0.3565 -0.3995
   82MOL    H1026092   6.935   7.027   7.690 -0.6131 -1.0639  0.1789
   82MOL    H1126093   7.041   6.821   7.799 -0.5052  3.7335 -1.4983
   82MOL    H1226094   6.793   6.679   8.125 -3.9288 -0.8645 -3.6576
   82MOL    H1326095   6.704   6.895   8.154  0.8904 -0.7621  1.8495
   82MOL    H1426096   6.767   7.080   8.002 -2.0454 -1.5983  0.7595
   82MOL    H1526097   6.789   7.214   7.780  0.6679  2.0845 -2.0380
   82MOL    H1626098   6.909   7.252   7.905 -0.6028  0.6759 -0.4459
   82MOL    H1726099   7.066   7.066   7.809 -0.5431 -2.5620  0.1035
   82MOL    C1826100   6.956   7.305   7.705 -0.2192  0.0393 -0.8185
   82MOL    C1926101   6.986   7.243   7.561 -0.2454  0.8531  0.0017
   82MOL    C2026102   6.888   7.211   7.467  0.1794 -0.3260  0.1024
   82MOL    C2126103   6.921   7.145   7.349 -0.5814  0.1185  0.4043
   82MOL   Cl2226104   6.801   7.087   7.242  0.4256  0.0107 -0.1885
   82MOL    C2326105   7.054   7.119   7.330 -0.6008  0.1925  0.1217
   82MOL    C2426106   7.157   7.160   7.413  0.0398 -0.1465  0.2079
   82MOL    C2526107   7.125   7.222   7.535  0.6086 -0.4321  0.1439
   82MOL    C2626108   6.878   7.440   7.683  0.8718 -0.1815  0.1575
   82MOL    H2726109   7.049   7.340   7.748 -0.4239  0.6899 -0.9037
   82MOL    H2826110   6.786   7.232   7.496 -0.4627 -1.8737 -0.9798
   82MOL    H2926111   7.083   7.060   7.244 -1.1606 -0.6357  0.4935
   82MOL    H3026112   7.261   7.139   7.395  0.4635 -0.2134  2.5755
   82MOL    H3126113   7.208   7.238   7.602  0.6441  0.5709 -0.1317
   82MOL    H3226114   6.947   7.505   7.629 -1.2307  0.1818 -2.1788
   82MOL    H3326115   6.785   7.426   7.628  0.2372  1.9859  0.6060
   82MOL    C3426116   6.849   7.511   7.810  0.3513 -0.4700  0.6284
   82MOL    C3526117   6.969   7.507   7.908  0.2452  0.0901 -0.3266
   82MOL    C3626118   7.095   7.561   7.873  0.4122  0.6484  0.8463
   82MOL    C3726119   7.205   7.545   7.965  0.2575  0.1422 -0.0138
   82MOL   Cl3826120   7.363   7.599   7.937 -0.2730 -0.3847  0.3176
   82MOL    C3926121   7.182   7.487   8.090 -0.0836 -0.0399 -0.7866
   82MOL    C4026122   7.052   7.439   8.123  0.2645 -0.0220  0.0903
   82MOL    C4126123   6.945   7.451   8.036 -0.2283  0.0455  0.2439
   82MOL    C4226124   6.813   7.656   7.787  0.0769 -0.6210  0.1181
   82MOL    H4326125   6.772   7.456   7.865 -1.5634  1.0111 -0.5219
   82MOL    H4426126   7.099   7.606   7.775  2.4751  0.9060  1.0157
   82MOL    H4526127   7.260   7.475   8.164  1.8707 -0.1530 -2.8100
   82MOL    H4626128   7.044   7.392   8.220 -0.3382  1.9579  1.0212
   82MOL    H4726129   6.845   7.426   8.066 -0.3722  0.6341  0.2655
   82MOL    H4826130   6.805   7.704   7.884  0.9962 -1.2557  0.5083
   82MOL    H4926131   6.888   7.702   7.723 -1.1366  1.0046 -0.1866
   82MOL    C5026132   6.688   7.676   7.703  0.4954  0.4428  0.5999
   82MOL    C5126133   6.568   7.598   7.747  0.2607  0.2878  0.4158
   82MOL    C5226134   6.518   7.630   7.875  0.0521 -0.5144  0.3542
   82MOL    C5326135   6.403   7.568   7.921  0.4673 -0.4605 -1.3787
   82MOL   Cl5426136   6.334   7.606   8.073 -0.1372  0.6784 -0.1400
   82MOL    C5526137   6.334   7.482   7.836  0.1245 -0.4263 -0.3587
   82MOL    C5626138   6.386   7.449   7.709 -0.6423  0.0170  0.5826
   82MOL    C5726139   6.500   7.510   7.665  0.3713  0.7567 -0.8454
   82MOL    C5826140   6.672   7.833   7.692  0.7875 -0.0842 -0.0063
   82MOL    H5926141   6.707   7.645   7.600 -3.5973  0.6733 -0.2972
   82MOL    H6026142   6.577   7.682   7.950 -1.7480 -3.4405  3.9545
   82MOL    H6126143   6.237   7.445   7.869  1.4107 -0.8976  3.1132
   82MOL    H6226144   6.327   7.391   7.640 -0.2505  0.8271 -0.4415
   82MOL    H6326145   6.517   7.510   7.558 -0.4125  0.0319 -0.9780
   82MOL    H6426146   6.567   7.853   7.674 -0.2202 -2.3327  3.0121
   82MOL    H6526147   6.696   7.880   7.787 -1.9125  1.1409  0.0878
   82MOL    C6626148   6.746   7.906   7.575  0.2417  0.1469  0.1000
   82MOL    C6726149   6.688   7.875   7.436  0.1193 -0.5315 -0.2676
   82MOL    C6826150   6.554   7.915   7.407 -0.1431 -0.1563 -0.1028
   82MOL    C6926151   6.500   7.892   7.282 -0.8386 -0.0318  0.4240
   82MOL   Cl7026152   6.346   7.952   7.246 -0.5345  0.5767  0.1502
   82MOL    C7126153   6.577   7.832   7.183  0.0850 -0.0459 -0.1866
   82MOL    C7226154   6.707   7.776   7.218 -0.3410 -0.8758 -0.5776
   82MOL    C7326155   6.769   7.812   7.342 -0.4794 -0.5499  0.3055
   82MOL    C7426156   6.759   8.058   7.589  0.4204  0.4457  0.4961
   82MOL    H7526157   6.848   7.869   7.580  0.1751 -0.1270 -0.5193
   82MOL    H7626158   6.494   7.973   7.476  0.0086 -2.0487  1.6539
   82MOL    H7726159   6.543   7.815   7.082  2.0889 -0.1075 -0.8707
   82MOL    H7826160   6.760   7.711   7.150  0.2580 -0.2802 -0.6838
   82MOL    H7926161   6.871   7.785   7.361 -0.5035 -0.1101  1.0561
   82MOL    H8026162   6.662   8.105   7.574 -0.1488 -0.7113  0.5228
   82MOL    H8126163   6.781   8.084   7.693  0.1423  1.0215  0.4107
   82MOL    C8226164   6.858   8.126   7.495  0.0976  0.0127  0.0351
   82MOL    C8326165   6.827   8.273   7.472  0.7145  0.4710  0.2610
   82MOL    C8426166   6.786   8.310   7.339  0.5874  0.2353  0.0126
   82MOL    C8526167   6.763   0.015   7.311 -0.2433  0.4663  0.2569
   82MOL   Cl8626168   6.720   0.060   7.149  0.0586 -0.1318  0.0271
   82MOL    C8726169   6.761   0.107   7.417  0.8575  0.2569 -0.5127
   82MOL    C8826170   6.799   0.070   7.546  0.3824  0.5188  0.9448
   82MOL    C8926171   6.832   8.369   7.569  0.0716 -0.1495 -0.3904
   82MOL    C9026172   6.998   8.101   7.540 -0.3985 -0.3834 -0.3541
   82MOL    H9126173   6.846   8.081   7.396 -0.3640  0.8108 -0.2721
   82MOL    H9226174   6.781   8.234   7.263 -0.8560 -0.8983  1.2101
   82MOL    H9326175   6.714   0.203   7.403  0.3095  0.3357  1.6038
   82MOL    H9426176   6.803   0.140   7.628  0.5488 -0.0902  1.4597
   82MOL    H9526177   6.851   8.344   7.672 -1.2180 -0.8782 -0.3155
   82MOL    H9626178   7.006   8.134   7.644 -0.9195  1.2294 -0.8132
   82MOL    H9726179   7.014   7.993   7.547 -0.2253 -0.4021 -1.0019
   82MOL    C9826180   7.114   8.176   7.468 -0.1382 -0.3121  0.2916
   82MOL    C9926181   7.242   8.161   7.554  0.2328 -0.3397  0.6705
   82MOL   C10026182   7.297   8.030   7.571 -0.6172 -0.3269  0.5975
   82MOL   C10126183   7.404   8.021   7.656  0.4622  0.1171 -0.0482
   82MOL  Cl10226184   7.469   7.872   7.698  0.2899  0.1940  0.1073
   82MOL   C10326185   7.467   8.133   7.713 -0.1016 -0.1212 -0.3303
   82MOL   C10426186   7.409   8.259   7.702  0.5455  0.2084  0.0169
   82MOL   C10526187   7.294   8.269   7.623  0.1505  0.0035  0.5237
   82MOL   C10626188   7.133   8.126   7.327  0.1452  0.8328  0.3809
   82MOL   H10726189   7.079   8.279   7.470 -0.3478 -0.3053 -2.4260
   82MOL   H10826190   7.249   7.941   7.532 -1.5303  0.5062 -0.2239
   82MOL   H10926191   7.546   8.130   7.786 -1.4851 -0.5027  1.1834
   82MOL   H11026192   7.444   8.339   7.764 -0.2363 -0.3064  1.1385
   82MOL   H11126193   7.249   8.367   7.618 -2.9535 -1.2363  2.7602
   82MOL   H11226194   7.173   8.025   7.335 -2.1683 -0.1482  0.0566
   82MOL   H11326195   7.038   8.114   7.275  0.4065  0.7965 -0.0889
   82MOL   C11426196   7.227   8.208   7.235  0.7734 -0.4650 -1.0762
   82MOL   C11526197   7.250   8.142   7.102  0.2721 -0.7537 -0.1597
   82MOL   C11626198   7.380   8.118   7.062  0.4854  0.6294  0.3827
   82MOL   C11726199   7.407   8.041   6.943 -0.1981 -0.3272  0.2116
   82MOL  Cl11826200   7.572   8.017   6.899  0.1124  0.0301 -0.1110
   82MOL   C11926201   7.305   8.004   6.853 -0.0678  0.5867 -0.4510
   82MOL   C12026202   7.168   8.030   6.901  0.0131  0.2324  0.0034
   82MOL   C12126203   7.146   8.097   7.022  0.2110  0.4408  0.4004
   82MOL   C12226204   7.175   8.350   7.215  0.4498 -0.5552 -0.1661
   82MOL   H12326205   7.321   8.221   7.288 -0.2158  0.2168  0.5892
   82MOL   H12426206   7.457   8.148   7.131 -1.5068 -0.4819  3.1721
   82MOL   H12526207   7.311   7.948   6.762 -0.0248  0.0705 -0.1341
   82MOL   H12626208   7.089   7.986   6.843  0.8390 -1.8004  0.3755
   82MOL   H12726209   7.043   8.119   7.048  0.5948  1.0915  1.4101
   82MOL   H12826210   7.179   8.378   7.110  0.2824 -1.5247 -0.4338
   82MOL   H12926211   7.068   8.348   7.233  0.8697 -0.1099  2.6383
   82MOL   C13026212   7.243   0.024   7.305  0.3823  0.1327  0.6743
   82MOL   C13126213   7.382   0.049   7.254  0.7644 -0.7127  0.2827
   82MOL   C13226214   7.404   0.135   7.145 -0.5882 -0.8764 -0.1881
   82MOL   C13326215   7.531   0.175   7.107  0.1838  0.5528 -0.4508
   82MOL  Cl13426216   7.544   0.277   6.976  0.5005  0.2121  0.2200
   82MOL   C13526217   7.643   0.128   7.187 -0.4517  0.9784  0.5618
   82MOL   C13626218   7.622   0.037   7.292  0.5220  0.2225 -0.8835
   82MOL   C13726219   7.493   8.434   7.329  0.1204 -0.2315  0.2742
   82MOL   C13826220   7.156   0.149   7.330  0.0484 -0.8273 -0.4031
   82MOL   H13926221   7.247   8.409   7.402  0.6510  1.5979  1.4305
   82MOL   H14026222   7.311   0.166   7.099 -1.0080  1.0753  1.9091
   82MOL   H14126223   7.744   0.163   7.173  0.3822 -0.9634  1.5594
   82MOL   H14226224   7.704   0.011   7.357  0.6539  2.3339 -0.1765
   82MOL   H14326225   7.477   8.379   7.421  0.9251 -1.2102 -0.1600
   82MOL   H14426226   7.145   0.206   7.238  0.5570  0.2244  0.1805
   82MOL   H14526227   7.054   0.117   7.350 -0.2188 -0.6979 -1.5329
   82MOL   C14626228   7.211   0.243   7.439 -0.2386  1.0080  0.1886
   82MOL   C14726229   7.333   0.326   7.397 -0.9715  0.7467 -0.2987
   82MOL   C14826230   7.457   0.296   7.460  0.0803 -0.7905 -0.5782
   82MOL   C14926231   7.570   0.365   7.424  0.2666 -0.0297 -0.0344
   82MOL  Cl15026232   7.718   0.334   7.507  0.2189  0.1646 -0.0226
   82MOL   C15126233   7.568   0.461   7.323 -0.1680 -0.0780 -0.4434
   82MOL   C15226234   7.440   0.501   7.267 -0.2806  0.5216  0.2256
   82MOL   C15326235   7.327   0.430   7.303  0.0081 -0.1744  0.0473
   82MOL   C15426236   7.101   0.320   7.500  1.4261  1.0212 -0.1996
   82MOL   H15526237   7.248   0.181   7.521  1.3512  0.9266 -0.5467
   82MOL   H15626238   7.467   0.225   7.541 -0.4736  1.3805  1.4490
   82MOL   H15726239   7.658   0.507   7.284 -0.0445  0.2515  0.2417
   82MOL   H15826240   7.439   0.580   7.194 -2.0219 -0.1703 -0.5204
   82MOL   H15926241   7.230   0.460   7.265 -0.8686 -2.4772  0.3235
   82MOL   H16026242   7.028   0.362   7.430  0.0626 -0.5817  0.2230
   82MOL   H16126243   7.031   0.246   7.539  1.2720  0.7926 -0.9074
   82MOL   C16226244   7.139   0.428   7.608  1.2316 -0.4279  0.0162
   82MOL   C16326245   7.015   0.504   7.657 -0.0019 -0.3608 -0.5168
   82MOL   C16426246   7.001   0.646   7.646  0.1553 -0.5263  0.2055
   82MOL   C16526247   6.870   0.702   7.673  0.0974 -0.7436 -0.6188
   82MOL  Cl16626248   6.852   0.878   7.653  0.3692  0.3000  0.0431
   82MOL   C16726249   6.759   0.626   7.723  0.7025 -0.8638  0.3827
   82MOL   C16826250   6.781   0.491   7.739  0.0553 -0.1632 -0.3304
   82MOL   C16926251   6.904   0.429   7.710 -0.0123  0.8062  0.2960
   82MOL   C17026252   7.221   0.377   7.728 -0.0742  0.3002  0.0694
   82MOL   H17126253   7.200   0.505   7.560  2.0117 -1.2688 -0.3581
   82MOL   H17226254   7.078   0.704   7.598  0.2622 -0.3858  0.5436
   82MOL   H17326255   6.673   0.679   7.761  0.5492 -0.7854 -0.0741
   82MOL   H17426256   6.699   0.434   7.782  0.9656 -0.5001  1.0191
   82MOL   H17526257   6.911   0.324   7.731 -1.0691  0.3501 -1.5620
   82MOL   H17626258   7.144   0.306   7.760 -0.3770  0.0743 -1.1349
   82MOL   H17726259   7.297   0.314   7.682 -1.5013  0.6111 -2.8513
   82MOL   C17826260   7.271   0.487   7.823  1.0211 -0.0532 -0.0453
   82MOL   C17926261   7.258   0.433   7.967  0.7356 -0.5938 -0.3920
   82MOL   C18026262   7.341   0.327   8.000  0.3673  0.4300 -0.2209
   82MOL   C18126263   7.328   0.266   8.128 -0.1782 -0.1376  0.0972
   82MOL  Cl18226264   7.423   0.131   8.167 -0.0673 -0.2642 -0.4506
   82MOL   C18326265   7.245   0.317   8.226 -0.7630  0.0887  0.1844
   82MOL   C18426266   7.164   0.427   8.188 -0.1637  0.4510  0.2396
   82MOL   C18526267   7.162   0.476   8.060  0.7761  0.1663  0.2381
   82MOL   C18626268   7.410   0.537   7.790  0.1181 -0.4704 -0.4145
   82MOL   H18726269   7.211   0.578   7.820 -1.7606 -1.8460 -1.4196
   82MOL   H18826270   7.409   0.285   7.927 -0.3416  0.1452 -0.7211
   82MOL   H18926271   7.252   0.278   8.326 -2.4425  0.6919  0.5460
   82MOL   H19026272   7.099   0.481   8.254  1.7017  2.5792  0.3918
   82MOL   H19126273   7.096   0.559   8.038  1.5410  1.5424  2.9258
   82MOL   H19226274   7.481   0.455   7.788 -0.0169 -0.5672 -1.2749
   82MOL   H19326275   7.401   0.569   7.686  0.0395 -2.5273 -1.0679
   82MOL   C19426276   7.483   0.634   7.893 -0.5832 -0.3474  0.5612
   82MOL   C19526277   7.637   0.620   7.887 -0.4433 -0.0832 -0.0225
   82MOL   C19626278   7.711   0.619   7.768 -0.1651 -0.1859 -0.5400
   82MOL   C19726279   7.854   0.610   7.768 -0.4449 -0.0147 -0.4952
   82MOL  Cl19826280   7.931   0.602   7.614 -0.0208  0.0345 -0.0080
   82MOL   C19926281   7.929   0.615   7.885  0.0010 -0.2548 -0.2311
   82MOL   C20026282   7.855   0.623   8.002 -0.6301 -0.6474  0.9623
   82MOL   C20126283   7.712   0.623   8.005  0.2588  0.2443 -0.1239
   82MOL   C20226284   7.440   0.784   7.877  0.7286  0.7279 -0.2124
   82MOL   H20326285   7.463   0.602   7.995  0.4985  2.6765  1.7655
   82MOL   H20426286   7.655   0.619   7.676  1.1338 -1.6767 -1.3663
   82MOL   H20526287   8.037   0.618   7.882  0.0484 -1.9649 -1.0138
   82MOL   H20626288   7.903   0.631   8.098  0.4166 -0.3537  0.4233
   82MOL   H20726289   7.663   0.622   8.101 -0.0961 -1.9311 -0.3174
   82MOL   H20826290   7.334   0.793   7.853  0.7882  1.9217 -0.0831
   82MOL   H20926291   7.444   0.813   7.982 -0.0499 -3.4543  1.0363
   82MOL   C21026292   7.514   0.885   7.790 -0.8434 -0.0808 -0.3072
   82MOL   C21126293   7.505   0.859   7.643 -0.5730 -0.2314  0.6433
   82MOL   C21226294   7.379   0.842   7.574 -0.6958 -0.3514 -0.5741
   82MOL   C21326295   7.371   0.828   7.439 -0.5092  0.2279 -0.3499
   82MOL  Cl21426296   7.217   0.819   7.371 -0.1906  0.4067  0.0922
   82MOL   C21526297   7.487   0.841   7.358  0.3980  0.0059  0.0506
   82MOL   C21626298   7.611   0.853   7.414  0.2934 -0.2454 -0.1871
   82MOL   C21726299   7.620   0.862   7.559  0.2862  0.2005  0.2345
   82MOL   C21826300   7.467   1.031   7.817  0.6010 -0.5451 -0.7141
   82MOL   H21926301   7.618   0.879   7.820 -1.3915 -2.0449  1.3649
   82MOL   H22026302   7.287   0.840   7.631  0.0514  2.0278  0.7825
   82MOL   H22126303   7.467   0.844   7.252  2.0851  0.0869 -0.2730
   82MOL   H22226304   7.701   0.867   7.357  0.7883  1.7010  1.0358
   82MOL   H22326305   7.721   0.864   7.595  0.9205  0.2018 -1.4908
   82MOL   H22426306   7.439   1.085   7.727 -2.5740 -0.8614  0.0269
   82MOL   H22526307   7.381   1.020   7.882 -0.6687 -0.7798 -2.4082
   82MOL   C22626308   7.566   1.123   7.905  0.1494 -0.1276  0.1250
   82MOL   C22726309   7.709   1.105   7.865 -1.0134 -0.7413  0.1384
   82MOL   C22826310   7.747   1.119   7.729 -0.1125  0.5448  0.3445
   82MOL   C22926311   7.882   1.117   7.684  0.7435 -0.1542  0.0481
   82MOL  Cl23026312   7.939   1.145   7.522 -0.0851  0.0823 -0.2372
   82MOL   C23126313   7.980   1.088   7.783  0.2753  0.3635  0.1370
   82MOL   C23226314   7.948   1.058   7.918 -0.0077 -0.4186  0.1949
   82MOL   C23326315   7.813   1.081   7.960 -0.0329 -0.4824 -0.2409
   82MOL   C23426316   7.520   1.272   7.899  0.6770 -0.0173 -0.6159
   82MOL   H23526317   7.558   1.074   8.002  1.4932 -0.9814 -0.1669
   82MOL   H23626318   7.671   1.138   7.655 -0.7383  2.9145  1.5539
   82MOL   H23726319   8.085   1.078   7.759  1.6873 -1.1535  6.0255
   82MOL   H23826320   8.030   1.036   7.985  0.2930 -2.4365 -0.8027
   82MOL   H23926321   7.795   1.074   8.066 -4.2817 -0.4897 -0.8856
   82MOL   H24026322   7.487   1.305   7.800 -1.4582 -0.9543 -0.2598
   82MOL   H24126323   7.432   1.276   7.963  1.2061 -0.0553  0.1222
   82MOL   C24226324   7.626   1.376   7.943  0.1171  0.3493  0.9425
   82MOL   C24326325   7.606   1.519   7.888 -0.5928 -0.0846  0.2426
   82MOL   C24426326   7.689   1.592   7.797 -0.8794  0.1518  0.4430
   82MOL   C24526327   7.662   1.726   7.755 -0.3652  0.0085 -0.7402
   82MOL  Cl24626328   7.765   1.811   7.644  0.2015  0.2782  0.2006
   82MOL   C24726329   7.545   1.791   7.803 -0.7939  0.6131  0.1999
   82MOL   C24826330   7.459   1.720   7.895 -0.3251  0.0296 -0.7758
   82MOL   C24926331   7.498   1.592   7.940  0.5576 -0.2291  0.1678
   82MOL   C25026332   7.653   1.370   8.098  0.5043 -0.9940  0.1854
   82MOL   H25126333   7.716   1.342   7.891 -0.3157 -0.5659  0.7694
   82MOL   H25226334   7.776   1.541   7.757  0.1587  0.6746  1.9762
   82MOL   H25326335   7.533   1.888   7.757 -1.7225 -0.4344 -1.8530
   82MOL   H25426336   7.381   1.775   7.945  1.0808  2.0984 -0.7739
   82MOL   H25526337   7.446   1.549   8.024 -0.5245  0.0184 -0.3632
   82MOL   H25626338   7.607   1.460   8.139  0.5944 -0.4313 -0.9484
   82MOL   H25726339   7.595   1.282   8.124 -0.2623 -0.8131 -0.8824
   82MOL   C25826340   7.798   1.369   8.147 -0.2873 -0.3167 -1.0435
   82MOL   C25926341   7.888   1.484   8.094  0.5997  0.1267 -0.3024
   82MOL   C26026342   7.987   1.461   7.996  0.0444 -0.1415 -0.3067
   82MOL   C26126343   8.052   1.571   7.937  0.3753  0.1502 -0.0078
   82MOL  Cl26226344   8.160   1.543   7.798 -0.0798 -0.2397 -0.3712
   82MOL   C26326345   8.015   1.704   7.973 -0.1761 -0.7535 -0.2979
   82MOL   C26426346   7.919   1.731   8.075 -0.0970  0.7690  0.3528
   82MOL   C26526347   7.858   1.618   8.132 -0.5909  0.0684  0.3167
   82MOL   C26626348   7.827   1.366   8.305  0.1998 -0.0911  0.0815
   82MOL   H26726349   7.847   1.282   8.105  0.3091 -0.4033 -0.1904
   82MOL   H26826350   8.001   1.359   7.963 -0.1999  0.0077 -0.8852
   82MOL   H26926351   8.061   1.792   7.931 -0.4138 -1.6028 -2.3965
   82MOL   H27026352   7.896   1.835   8.095  1.4413  1.1161  0.3512
   82MOL   H27126353   7.788   1.632   8.213  1.5208  0.0136  2.2071
   82MOL   H27226354   7.933   1.340   8.315  0.4041  0.1655 -1.3142
   82MOL   H27326355   7.819   1.470   8.335 -0.7223 -1.1659  3.8229
   82MOL   C27426356   7.753   1.273   8.406  0.1875 -0.2576  0.3265
   82MOL   C27526357   7.759   1.132   8.350  0.3967  0.2999  0.1789
   82MOL   C27626358   7.882   1.063   8.347  0.5427  0.5590  0.0190
   82MOL   C27726359   7.898   0.930   8.305  0.2009 -0.2974 -0.0560
   82MOL  Cl27826360   8.061   0.859   8.302  0.3207 -0.2694 -0.1158
   82MOL   C27926361   7.779   0.857   8.272 -0.3807  0.2966  0.3970
   82MOL   C28026362   7.649   0.919   8.271  0.5880 -0.4268 -0.4349
   82MOL   C28126363   7.647   1.057   8.315  0.0526 -0.3406 -0.5423
   82MOL   C28226364   7.799   1.292   0.113 -0.4986 -1.2947  0.5885
   82MOL   H28326365   7.646   1.296   8.411  0.5573  1.6126 -0.3110
   82MOL   H28426366   7.975   1.108   8.378  0.2256  0.7860  0.6570
   82MOL   H28526367   7.783   0.753   8.243 -2.6144  0.5542 -0.9641
   82MOL   H28626368   7.559   0.864   8.244 -1.7435  2.6749  0.7783
   82MOL   H28726369   7.547   1.094   8.325  0.7188  1.3075  0.1136
   82MOL   H28826370   7.908   1.280   0.117  0.1265  3.1480  0.2431
   82MOL   H28926371   7.791   1.393   0.154 -1.6768 -0.5798 -1.3168
   82MOL   C29026372   7.734   1.198   0.219 -0.2809  0.0898  0.1972
   82MOL   C29126373   7.811   1.196   0.349 -0.6358  1.0221  0.1678
   82MOL   C29226374   7.909   1.105   0.366  0.0955  0.2319 -0.2184
   82MOL   C29326375   7.959   1.080   0.488 -0.5298 -0.0585 -0.2432
   82MOL  Cl29426376   8.067   0.951   0.503 -0.2780  0.2459  0.0090
   82MOL   C29526377   7.937   1.166   0.599 -0.5613 -0.0511  0.3853
   82MOL   C29626378   7.847   1.274   0.579 -0.5921  0.9379 -0.2475
   82MOL   C29726379   7.786   1.288   0.453 -0.1804 -0.3680  0.0748
   82MOL   C29826380   7.579   1.218   0.231  0.1726 -0.0056 -0.6950
   82MOL   H29926381   7.735   1.095   0.182 -1.1631  0.4055 -0.7409
   82MOL   H30026382   7.931   1.045   0.279 -0.2548 -2.3586  1.4115
   82MOL   H30126383   8.005   1.148   0.681 -0.1368  0.5671  0.1669
   82MOL   H30226384   7.819   1.349   0.652 -1.8729 -0.9903  1.2655
   82MOL   H30326385   7.716   1.367   0.430 -0.1627  0.0891  1.5603
   82MOL   H30426386   7.558   1.314   0.276 -1.9331  0.2501 -2.1903
   82MOL   H30526387   7.544   1.214   0.128 -0.8705  1.3002 -0.3976
   82MOL   C30626388   7.499   1.108   0.312 -0.0940 -0.2644  0.6948
   82MOL   C30726389   7.489   1.132   0.462 -1.0245  0.9950 -0.4340
   82MOL   C30826390   7.444   1.253   0.513  0.4095  0.3279  0.5692
   82MOL   C30926391   7.465   1.291   0.651 -0.4195  0.8094  0.4538
   82MOL  Cl31026392   7.400   1.433   0.714  0.2437  0.0940 -0.1557
   82MOL   C31126393   7.536   1.210   0.739  0.2618  0.0175 -0.3762
   82MOL   C31226394   7.570   1.080   0.691  0.2993 -0.3516  0.2130
   82MOL   C31326395   7.550   1.045   0.558  0.3873 -0.4062  0.4842
   82MOL   C31426396   7.348   1.104   0.265 -0.2779  0.4293 -0.2872
   82MOL   H31526397   7.532   1.007   0.286  0.9549  0.0064  0.9358
   82MOL   H31626398   7.387   1.321   0.452  0.7471  2.4649  2.5688
   82MOL   H31726399   7.561   1.244   0.838 -2.0540 -2.4396  1.1184
   82MOL   H31826400   7.627   1.010   0.750  0.6044 -0.1491  0.1571
   82MOL   H31926401   7.596   0.953   0.522 -0.3923  0.5814 -3.2771
   82MOL   H32026402   7.355   1.116   0.157  1.3655 -1.3520 -0.4007
   82MOL   H32126403   7.292   1.015   0.293  2.2065 -0.0533  3.5377
   82MOL   H32226404   7.286   1.187   0.300  0.5459  0.4668  1.1283
   83MOL     C126405   3.259   4.319   6.819  0.1778 -0.1983  0.0864
   83MOL     C226406   3.169   4.380   6.714 -0.2059  0.4905 -0.2236
   83MOL     C326407   3.101   4.494   6.750  0.6239 -0.0346  0.0796
   83MOL     C426408   3.010   4.559   6.664  0.5402  0.1438  0.5501
   83MOL    Cl526409   2.926   4.697   6.727  0.5783  0.3607  0.2112
   83MOL     C626410   2.996   4.505   6.534  0.4000  0.1439 -0.1281
   83MOL     C726411   3.071   4.391   6.499  0.3683 -0.3291  0.0791
   83MOL     C826412   3.162   4.329   6.584 -0.4045  0.0110 -0.4069
   83MOL     C926413   3.400   4.369   6.811  0.5431 -0.6889  0.9171
   83MOL    H1026414   3.249   4.211   6.808  2.2988 -0.7590  2.9094
   83MOL    H1126415   3.113   4.539   6.848  0.8362 -0.0042  0.0412
   83MOL    H1226416   2.938   4.560   6.461 -0.4691 -0.3683  0.1688
   83MOL    H1326417   3.048   4.350   6.401  3.5660 -0.7830 -0.5190
   83MOL    H1426418   3.214   4.237   6.564 -1.6376 -0.7067 -0.3652
   83MOL    H1526419   3.433   4.361   6.708 -1.3586  3.0795 -0.0944
   83MOL    H1626420   3.399   4.475   6.836  3.5126  0.4063 -3.0448
   83MOL    H1726421   3.222   4.324   6.922 -1.2056 -2.0255 -0.3126
   83MOL    C1826422   3.499   4.298   6.896  0.0033  0.0932  0.4112
   83MOL    C1926423   3.474   4.311   7.047  0.8459 -0.6144  0.8824
   83MOL    C2026424   3.472   4.200   7.137  0.3168  0.3735 -0.3021
   83MOL    C2126425   3.456   4.223   7.273 -1.2489 -0.6811 -1.2363
   83MOL   Cl2226426   3.463   4.090   7.386  0.2409 -0.1004  0.2570
   83MOL    C2326427   3.426   4.358   7.318 -0.9276 -0.6006 -0.0600
   83MOL    C2426428   3.430   4.471   7.234 -0.0861  0.7791 -0.0082
   83MOL    C2526429   3.462   4.444   7.104  0.3285 -0.7650 -0.5555
   83MOL    C2626430   3.525   4.153   6.853 -0.4512 -0.4332 -0.1633
   83MOL    H2726431   3.592   4.349   6.871 -1.2158  2.5311  0.7182
   83MOL    H2826432   3.484   4.097   7.106 -2.3517 -0.7939  2.2241
   83MOL    H2926433   3.419   4.379   7.423  1.3758 -1.2129  0.2391
   83MOL    H3026434   3.412   4.571   7.270 -1.5029 -0.3077  2.3448
   83MOL    H3126435   3.471   4.533   7.043 -1.1024 -2.6326 -3.6337
   83MOL    H3226436   3.456   4.089   6.907  2.3693  0.1972  4.4614
   83MOL    H3326437   3.514   4.143   6.745 -2.0385  2.9440 -0.3720
   83MOL    C3426438   3.670   4.103   6.887 -0.3825 -0.0196 -0.4567
   83MOL    C3526439   3.653   3.952   6.897 -0.1525  0.4779  0.6574
   83MOL    C3626440   3.641   3.896   7.025  1.1684 -0.2072  0.4915
   83MOL    C3726441   3.606   3.761   7.033  0.1006  0.0698  0.0400
   83MOL   Cl3826442   3.589   3.687   7.189 -0.0058  0.3099 -0.2122
   83MOL    C3926443   3.567   3.687   6.922 -0.0685  0.5871  0.1555
   83MOL    C4026444   3.559   3.744   6.794  0.8171  0.8564 -0.0367
   83MOL    C4126445   3.614   3.873   6.782 -0.5005 -0.3429  0.1763
   83MOL    C4226446   3.791   4.157   6.801  0.1333  0.7858 -0.1812
   83MOL    H4326447   3.695   4.131   6.989  1.7623 -0.4653 -0.8378
   83MOL    H4426448   3.650   3.952   7.118  1.3987  1.0932 -0.2973
   83MOL    H4526449   3.535   3.585   6.938 -1.4950  0.8124 -1.1633
   83MOL    H4626450   3.518   3.696   6.706  0.9050  0.5366  0.0942
   83MOL    H4726451   3.592   3.921   6.687  0.0364  0.6963  0.5593
   83MOL    H4826452   3.810   4.261   6.828  1.1266  0.9874 -1.5946
   83MOL    H4926453   3.876   4.104   6.844 -1.1003 -1.1274 -0.0678
   83MOL    C5026454   3.800   4.133   6.641 -0.8605 -0.2705 -0.3324
   83MOL    C5126455   3.698   4.213   6.560 -1.1597  0.2424  0.6225
   83MOL    C5226456   3.667   4.342   6.584  0.2779  0.1280 -0.3835
   83MOL    C5326457   3.579   4.411   6.503  0.5453 -0.1234 -0.3265
   83MOL   Cl5426458   3.544   4.572   6.540  0.4482 -0.2972  0.0332
   83MOL    C5526459   3.509   4.344   6.397 -0.4418  0.1090 -1.0135
   83MOL    C5626460   3.542   4.208   6.373 -0.2267 -0.2767  0.3203
   83MOL    C5726461   3.642   4.141   6.452  0.4619 -0.1605  0.0483
   83MOL    C5826462   3.937   4.164   6.586 -0.0369  0.8229  0.6858
   83MOL    H5926463   3.767   4.031   6.626 -1.7488  0.2218 -1.8638
   83MOL    H6026464   3.709   4.391   6.670  0.6397  0.6508 -0.8465
   83MOL    H6126465   3.449   4.401   6.328 -1.6719  0.8582  0.6593
   83MOL    H6226466   3.498   4.166   6.284  1.2349 -1.4936  0.1446
   83MOL    H6326467   3.679   4.042   6.428  0.0190 -0.0624 -1.0635
   83MOL    H6426468   3.921   4.183   6.480  0.1731  1.5742  0.7864
   83MOL    H6526469   3.964   4.254   6.640 -0.8174  0.8435  1.0467
   83MOL    C6626470   4.035   4.042   6.600 -0.7022  0.0867  0.1190
   83MOL    C6726471   3.988   3.914   6.535  0.1011 -0.3009  0.5358
   83MOL    C6826472   3.995   3.892   6.393  0.1214 -0.2328 -0.5942
   83MOL    C6926473   3.957   3.768   6.333  0.6505  0.1571  0.4711
   83MOL   Cl7026474   3.983   3.727   6.171  0.0921  0.1453  0.3509
   83MOL    C7126475   3.919   3.663   6.419 -0.0284 -0.3178 -1.0402
   83MOL    C7226476   3.910   3.681   6.557 -0.1557  0.4767 -0.0245
   83MOL    C7326477   3.943   3.804   6.612 -0.5503  0.2199 -0.0930
   83MOL    C7426478   4.183   4.064   6.572  0.4188  0.5077  0.1472
   83MOL    H7526479   4.026   4.022   6.706  2.3487  2.9946  1.0215
   83MOL    H7626480   4.050   3.963   6.332  0.3118  0.5276  0.4576
   83MOL    H7726481   3.902   3.564   6.379 -0.6458 -0.1328 -1.2520
   83MOL    H7826482   3.886   3.603   6.628  0.6635 -0.0768 -0.3504
   83MOL    H7926483   3.940   3.822   6.719 -2.1427  1.1912 -0.2860
   83MOL    H8026484   4.244   3.974   6.574  2.7489  2.0334 -0.5220
   83MOL    H8126485   4.198   4.086   6.467  2.0946  0.7511  0.4236
   83MOL    C8226486   4.263   4.165   6.656  0.9516  1.0339  0.6118
   83MOL    C8326487   4.256   4.135   6.809 -0.1065 -0.2053 -0.4855
   83MOL    C8426488   4.348   4.048   6.874  0.1921  0.1403  0.3120
   83MOL    C8526489   4.334   4.024   7.014 -0.0658  0.2393  0.1431
   83MOL   Cl8626490   4.443   3.923   7.100  0.0201  0.1007 -0.0776
   83MOL    C8726491   4.239   4.092   7.091  0.9693 -0.2821  0.4893
   83MOL    C8826492   4.156   4.187   7.026  0.1350  0.1979 -0.4025
   83MOL    C8926493   4.156   4.197   6.883 -0.3509  0.3896 -0.5846
   83MOL    C9026494   4.407   4.172   6.605 -0.0387  0.4888  0.0218
   83MOL    H9126495   4.221   4.264   6.635  2.4175  1.9668  1.9428
   83MOL    H9226496   4.424   3.994   6.820 -1.4064 -1.9936  0.1030
   83MOL    H9326497   4.226   4.071   7.196  0.6578 -1.1779  0.2701
   83MOL    H9426498   4.078   4.233   7.084 -1.4934 -0.5150 -1.9855
   83MOL    H9526499   4.072   4.248   6.838  0.3512  2.6715  0.6150
   83MOL    H9626500   4.460   4.079   6.625 -0.7800  0.8790  4.3048
   83MOL    H9726501   4.398   4.182   6.497 -0.6701 -2.0084 -0.1720
   83MOL    C9826502   4.507   4.267   6.681  0.7517  0.9190 -0.1854
   83MOL    C9926503   4.645   4.205   6.678 -0.0913  0.6531 -0.3628
   83MOL   C10026504   4.690   4.133   6.796  0.3427  0.7876  0.8550
   83MOL   C10126505   4.818   4.067   6.798  0.2202  0.0908  0.2442
   83MOL  Cl10226506   4.876   3.976   6.930  0.7170 -0.0068  0.2292
   83MOL   C10326507   4.902   4.080   6.687  0.8292  0.1302  0.4584
   83MOL   C10426508   4.852   4.136   6.570  0.3480 -0.0921 -0.3851
   83MOL   C10526509   4.730   4.211   6.564 -0.0033 -0.7979 -0.5626
   83MOL   C10626510   4.503   4.413   6.627 -0.2749  0.3667  0.1703
   83MOL   H10726511   4.477   4.263   6.786  1.1104 -1.8151 -0.1284
   83MOL   H10826512   4.621   4.127   6.879 -1.3551 -1.0498 -0.6609
   83MOL   H10926513   4.992   4.020   6.684 -1.2861 -3.2470  1.2633
   83MOL   H11026514   4.920   4.130   6.486  3.5418 -0.3332  2.1283
   83MOL   H11126515   4.705   4.268   6.475 -3.3769 -0.2248  0.6771
   83MOL   H11226516   4.601   4.459   6.637  0.1733 -0.5749  0.2016
   83MOL   H11326517   4.488   4.416   6.520  0.0196 -0.0900  0.1141
   83MOL   C11426518   4.403   4.512   6.696 -0.0788 -0.4773  0.2936
   83MOL   C11526519   4.429   4.524   6.848  0.3334  0.5588 -0.5043
   83MOL   C11626520   4.556   4.557   6.898 -0.5478  0.6302  0.6341
   83MOL   C11726521   4.579   4.571   7.042 -0.4480 -0.0387 -1.0343
   83MOL  Cl11826522   4.731   4.632   7.098  0.0699  0.1242 -0.3387
   83MOL   C11926523   4.472   4.546   7.129 -0.1905  0.3524 -0.8725
   83MOL   C12026524   4.346   4.508   7.074 -0.5317 -0.1527 -0.5167
   83MOL   C12126525   4.323   4.494   6.936 -0.5087 -0.6613 -0.6137
   83MOL   C12226526   4.389   4.653   6.636 -0.0013 -0.3744 -0.3825
   83MOL   H12326527   4.304   4.466   6.695  0.6440 -2.1477  1.6436
   83MOL   H12426528   4.637   4.583   6.832 -0.1947 -2.0605 -0.0431
   83MOL   H12526529   4.485   4.563   7.234 -0.6698 -2.8908 -0.2263
   83MOL   H12626530   4.274   4.479   7.148 -1.4124 -0.6252 -1.5470
   83MOL   H12726531   4.223   4.479   6.898 -0.4959 -0.2566 -0.8106
   83MOL   H12826532   4.332   4.725   6.696 -0.3276  0.5765 -1.8023
   83MOL   H12926533   4.487   4.701   6.639 -0.3719  0.4280 -0.9771
   83MOL   C13026534   4.334   4.651   6.486  0.0712 -0.3631 -0.4984
   83MOL   C13126535   4.187   4.632   6.483 -0.0389  0.9131 -0.3660
   83MOL   C13226536   4.103   4.733   6.530  0.3166 -0.3703 -0.2799
   83MOL   C13326537   3.964   4.717   6.525 -0.7951 -0.1761  0.6069
   83MOL  Cl13426538   3.856   4.841   6.574 -0.1173 -0.2358 -0.3261
   83MOL   C13526539   3.908   4.597   6.479 -0.6044  0.3220 -0.2512
   83MOL   C13626540   3.991   4.505   6.418  0.1395  1.2491  0.1379
   83MOL   C13726541   4.132   4.515   6.431 -0.4002  0.2488 -0.4379
   83MOL   C13826542   4.364   4.784   6.415  0.3069  0.6078 -0.4657
   83MOL   H13926543   4.371   4.570   6.423  0.2974 -0.0595 -0.7574
   83MOL   H14026544   4.159   4.816   6.572 -0.0495 -0.4136  0.3076
   83MOL   H14126545   3.803   4.575   6.485  0.0762 -2.9000  0.7123
   83MOL   H14226546   3.955   4.408   6.388  2.7703  0.6027 -1.0387
   83MOL   H14326547   4.188   4.430   6.394  0.7894  0.6192  0.4554
   83MOL   H14426548   4.286   4.789   6.339  0.9096  0.5027 -1.0915
   83MOL   H14526549   4.339   4.864   6.485  0.1763  0.8358 -0.7727
   83MOL   C14626550   4.505   4.795   6.352 -0.2189 -0.5337  0.2931
   83MOL   C14726551   4.489   4.830   6.205 -0.0816 -0.8059  0.2148
   83MOL   C14826552   4.532   4.738   6.103 -0.3491 -0.0141 -1.0094
   83MOL   C14926553   4.506   4.770   5.969  1.0524 -0.1552 -0.0762
   83MOL  Cl15026554   4.537   4.652   5.849 -0.1349 -0.0645 -0.1587
   83MOL   C15126555   4.445   4.891   5.928 -0.8584 -1.0164 -0.0221
   83MOL   C15226556   4.405   4.983   6.027 -0.1652  0.3881 -0.1705
   83MOL   C15326557   4.424   4.951   6.168 -0.4794  1.3243 -0.3538
   83MOL   C15426558   4.600   4.892   6.431 -0.4573 -1.0640  0.6762
   83MOL   H15526559   4.558   4.701   6.355 -0.1240 -0.4572  1.1921
   83MOL   H15626560   4.578   4.644   6.130 -1.9890 -1.3568 -2.8205
   83MOL   H15726561   4.441   4.903   5.821  2.2588  1.2594  0.0451
   83MOL   H15826562   4.358   5.077   6.002 -0.8715  0.1524  0.2640
   83MOL   H15926563   4.388   5.014   6.247  0.0896  2.1473 -0.7454
   83MOL   H16026564   4.556   4.992   6.430  1.9211  0.0344  1.6992
   83MOL   H16126565   4.604   4.863   6.536  5.4022  0.5738  1.1136
   83MOL   C16226566   4.748   4.914   6.376  0.5007 -0.2315  0.1840
   83MOL   C16326567   4.806   5.040   6.440 -0.2748  0.2103  0.3843
   83MOL   C16426568   4.853   5.045   6.574 -0.2313  0.3527 -0.2812
   83MOL   C16526569   4.927   5.161   6.616 -0.1817  0.1630  0.5334
   83MOL  Cl16626570   5.017   5.156   6.762  0.2020  0.3936  0.3642
   83MOL   C16726571   4.928   5.275   6.536 -0.9159 -0.8244  0.0351
   83MOL   C16826572   4.854   5.279   6.418 -1.0006 -0.1270 -0.0747
   83MOL   C16926573   4.808   5.158   6.360 -0.4553 -0.3117 -0.5679
   83MOL   C17026574   4.850   4.791   6.375  0.2736 -0.0245 -0.4545
   83MOL   H17126575   4.727   4.943   6.273  2.5713  0.4518 -0.0465
   83MOL   H17226576   4.847   4.964   6.644  0.8795  0.7605  0.3021
   83MOL   H17326577   4.973   5.365   6.575  2.3049 -1.2827 -2.4130
   83MOL   H17426578   4.843   5.378   6.376 -0.2515  0.0371  0.1185
   83MOL   H17526579   4.753   5.159   6.267 -2.1442 -2.2094  0.3628
   83MOL   H17626580   4.889   4.765   6.474 -0.0688  1.3507  0.0574
   83MOL   H17726581   4.799   4.698   6.348 -0.7994  0.7375 -1.0857
   83MOL   C17826582   4.965   4.803   6.278 -0.5199  0.6702  0.5825
   83MOL   C17926583   5.079   4.700   6.300  0.2776  0.6123 -0.2679
   83MOL   C18026584   5.048   4.564   6.311  0.3646  0.0302 -0.5781
   83MOL   C18126585   5.149   4.472   6.342 -0.2102  1.6380 -0.1760
   83MOL  Cl18226586   5.112   4.309   6.341 -0.0838 -0.0033  0.4310
   83MOL   C18326587   5.282   4.514   6.359 -0.0627 -0.5906 -0.6680
   83MOL   C18426588   5.317   4.649   6.332  0.0538 -0.3191  0.0813
   83MOL   C18526589   5.215   4.738   6.302 -0.1262  0.2918 -0.0263
   83MOL   C18626590   4.918   4.813   6.134  0.1357 -0.5320 -0.0918
   83MOL   H18726591   5.008   4.900   6.301 -1.4045  1.4076 -0.7585
   83MOL   H18826592   4.952   4.515   6.300  1.8463 -3.6024  1.5497
   83MOL   H18926593   5.357   4.444   6.395 -0.0795 -0.2528  0.0352
   83MOL   H19026594   5.419   4.685   6.333  0.4539 -1.2048 -2.9426
   83MOL   H19126595   5.239   4.842   6.281 -1.2656  0.2037 -1.8616
   83MOL   H19226596   4.840   4.738   6.122 -2.6803  1.9493  1.8612
   83MOL   H19326597   4.865   4.908   6.123 -0.3495 -0.7552  0.3328
   83MOL   C19426598   5.021   4.797   6.016  0.4242 -0.1871  0.2036
   83MOL   C19526599   4.948   4.766   5.883 -1.0370  0.0154 -0.5888
   83MOL   C19626600   4.930   4.630   5.844 -0.4374 -0.2510  0.4436
   83MOL   C19726601   4.867   4.600   5.724 -0.3709 -0.6829 -0.1728
   83MOL  Cl19826602   4.881   4.432   5.670 -0.2011 -0.2080 -0.3088
   83MOL   C19926603   4.813   4.700   5.643  0.1664 -0.0123  0.3075
   83MOL   C20026604   4.831   4.836   5.684 -0.4183  0.0276 -0.3394
   83MOL   C20126605   4.901   4.872   5.805  0.4569 -0.6566  0.6506
   83MOL   C20226606   5.116   4.916   6.011  0.2070  0.1498 -0.4875
   83MOL   H20326607   5.078   4.706   6.034  0.3524 -0.3685 -0.4407
   83MOL   H20426608   4.978   4.551   5.899 -3.0029 -1.6543  0.7182
   83MOL   H20526609   4.779   4.675   5.544 -1.2030  0.7158  0.5858
   83MOL   H20626610   4.805   4.916   5.616  1.1510  2.5610  1.9260
   83MOL   H20726611   4.921   4.974   5.835 -1.2632  0.1109 -0.7464
   83MOL   H20826612   5.067   5.011   5.988  2.0253  1.1318 -0.3696
   83MOL   H20926613   5.161   4.946   6.105 -1.7425  1.2703  0.1001
   83MOL   C21026614   5.223   4.899   5.904  0.2616  0.3599 -0.5615
   83MOL   C21126615   5.271   5.031   5.847 -0.0530 -0.4112 -0.2174
   83MOL   C21226616   5.219   5.083   5.728 -0.2524 -0.6219  0.4757
   83MOL   C21326617   5.264   5.211   5.682 -0.1235  0.6042 -0.0904
   83MOL  Cl21426618   5.183   5.285   5.539 -0.7414 -0.1509 -0.2790
   83MOL   C21526619   5.351   5.285   5.763 -0.1136  0.0820  0.1440
   83MOL   C21626620   5.409   5.233   5.882  0.0674  0.0941  0.2946
   83MOL   C21726621   5.359   5.110   5.930 -0.4192 -0.4425 -0.2137
   83MOL   C21826622   5.340   4.815   5.966 -0.0363  0.6428 -0.1641
   83MOL   H21926623   5.183   4.838   5.823  0.2226  0.5326 -0.6728
   83MOL   H22026624   5.144   5.029   5.672 -0.9533  2.1551 -1.3131
   83MOL   H22126625   5.366   5.386   5.728  0.1996 -0.5715 -1.6172
   83MOL   H22226626   5.475   5.297   5.938 -0.6928  1.5122 -0.4040
   83MOL   H22326627   5.402   5.093   6.028 -2.5717 -1.2191  0.6170
   83MOL   H22426628   5.401   4.879   6.030 -0.3610  0.0846  0.7189
   83MOL   H22526629   5.303   4.742   6.038 -0.6527  0.0723 -1.0435
   83MOL   C22626630   5.424   4.735   5.869 -0.1106  0.6457 -0.0913
   83MOL   C22726631   5.560   4.700   5.914  0.5040 -0.0858  0.4371
   83MOL   C22826632   5.665   4.783   5.881  0.2789 -0.5789  0.0116
   83MOL   C22926633   5.798   4.752   5.926  0.4503 -0.4326 -0.3116
   83MOL  Cl23026634   5.938   4.838   5.869  0.1144 -0.3604  0.0207
   83MOL   C23126635   5.813   4.628   5.997  0.0763 -0.2548 -0.4872
   83MOL   C23226636   5.709   4.557   6.045  0.6942  0.0963 -0.7751
   83MOL   C23326637   5.577   4.592   6.001 -0.8397  0.0536  0.2422
   83MOL   C23426638   5.345   4.613   5.806 -0.2803  0.1349  0.3089
   83MOL   H23526639   5.448   4.810   5.793 -1.0356  0.9993 -0.0431
   83MOL   H23626640   5.646   4.864   5.812  1.3100  2.0092  2.6659
   83MOL   H23726641   5.910   4.590   6.026  0.4629  1.7812  0.9493
   83MOL   H23826642   5.700   4.466   6.104  2.4177 -0.5166 -1.4379
   83MOL   H23926643   5.490   4.536   6.035 -1.0385  1.3437  1.9326
   83MOL   H24026644   5.312   4.553   5.891  1.4563 -0.0408  0.8791
   83MOL   H24126645   5.261   4.651   5.747 -1.7600 -0.1757  2.1690
   83MOL   C24226646   5.429   4.506   5.725 -0.0590  0.4430  0.0736
   83MOL   C24326647   5.347   4.383   5.683 -0.5282  0.0767 -0.5949
   83MOL   C24426648   5.378   4.256   5.748  1.0921  0.3366 -0.1043
   83MOL   C24526649   5.293   4.147   5.721 -0.9636  0.0336  0.1690
   83MOL  Cl24626650   5.330   3.996   5.789 -0.0324 -0.4141 -0.2143
   83MOL   C24726651   5.176   4.158   5.637  0.4663 -0.6452  0.0800
   83MOL   C24826652   5.169   4.275   5.563  0.5037 -0.5218 -0.0593
   83MOL   C24926653   5.243   4.387   5.589 -0.0815 -0.0217  0.2048
   83MOL   C25026654   5.499   4.569   5.597  0.4315  0.1982 -0.6906
   83MOL   H25126655   5.507   4.469   5.792 -0.5051  0.8550  0.8151
   83MOL   H25226656   5.465   4.261   5.812  0.2613 -0.7638  1.1288
   83MOL   H25326657   5.103   4.080   5.623  0.5974 -0.9598  1.0922
   83MOL   H25426658   5.100   4.302   5.484 -0.8925  1.1138  1.6684
   83MOL   H25526659   5.211   4.475   5.535 -2.0948 -0.5035  0.5702
   83MOL   H25626660   5.426   4.581   5.517 -0.1463 -0.9115 -0.3368
   83MOL   H25726661   5.527   4.669   5.629  1.0695 -0.0794 -0.3655
   83MOL   C25826662   5.619   4.492   5.550  0.1971 -0.3157 -0.4298
   83MOL   C25926663   5.661   4.528   5.413 -0.2282 -0.4852 -0.4494
   83MOL   C26026664   5.666   4.434   5.307  0.0279 -0.2903 -0.5028
   83MOL   C26126665   5.716   4.468   5.180 -0.0970 -0.4632  0.0309
   83MOL  Cl26226666   5.714   4.357   5.056  0.6157  0.1446  0.0644
   83MOL   C26326667   5.760   4.599   5.158 -0.1761  0.8256  0.7328
   83MOL   C26426668   5.751   4.695   5.263  0.0497 -0.8682  0.1580
   83MOL   C26526669   5.715   4.658   5.387  0.1684  0.0140 -0.0493
   83MOL   C26626670   5.751   4.504   5.650  0.7316 -0.3098  0.4615
   83MOL   H26726671   5.590   4.388   5.547  0.9856 -0.5165 -1.3611
   83MOL   H26826672   5.645   4.330   5.327 -0.7117 -0.2960 -1.2269
   83MOL   H26926673   5.791   4.640   5.062  0.1246  2.1209  1.3738
   83MOL   H27026674   5.791   4.795   5.257 -2.2134  0.2456  2.4606
   83MOL   H27126675   5.715   4.733   5.465  0.6531 -0.7409  0.6882
   83MOL   H27226676   5.768   4.609   5.670 -2.1159 -0.1909  2.5765
   83MOL   H27326677   5.728   4.466   5.749  0.1552 -0.1062  0.4110
   83MOL   C27426678   5.886   4.452   5.603 -0.0244 -1.2533 -0.5213
   83MOL   C27526679   5.997   4.529   5.658  0.9359  0.2441  0.3301
   83MOL   C27626680   6.061   4.632   5.587 -0.2092  0.5745  0.1395
   83MOL   C27726681   6.176   4.692   5.644  0.3262  0.4843  0.4525
   83MOL  Cl27826682   6.250   4.815   5.557  0.2608 -0.0739  0.3118
   83MOL   C27926683   6.220   4.659   5.767 -0.2167 -0.3214  0.2930
   83MOL   C28026684   6.152   4.561   5.844  0.4859  1.0679 -0.4618
   83MOL   C28126685   6.041   4.499   5.789 -0.3565 -0.4400 -0.7603
   83MOL   C28226686   5.898   4.295   5.607  0.2597  0.2863  0.0730
   83MOL   H28326687   5.889   4.474   5.497 -0.5192 -1.5593 -0.6050
   83MOL   H28426688   6.018   4.669   5.495  0.1966  2.5064  0.7058
   83MOL   H28526689   6.308   4.711   5.803  0.6036 -0.2116 -1.7824
   83MOL   H28626690   6.182   4.528   5.942  0.1322  0.6737 -0.4846
   83MOL   H28726691   5.997   4.419   5.847  1.3860 -0.4290  0.6240
   83MOL   H28826692   5.885   4.254   5.707  0.6022 -0.4911 -0.1932
   83MOL   H28926693   5.814   4.258   5.547  0.3450  1.2119 -0.6158
   83MOL   C29026694   6.042   4.246   5.563  0.4463 -0.4320  0.2774
   83MOL   C29126695   6.083   4.113   5.625  0.6629 -0.0297 -0.3795
   83MOL   C29226696   6.213   4.107   5.678  0.2727 -0.7072  0.1903
   83MOL   C29326697   6.265   3.982   5.720 -0.0740 -0.2501  0.4880
   83MOL  Cl29426698   6.423   3.967   5.788  0.0213 -0.4233  0.1840
   83MOL   C29526699   6.179   3.864   5.722 -0.0434 -0.1043 -0.3529
   83MOL   C29626700   6.046   3.876   5.678 -0.8386 -0.4772  0.1265
   83MOL   C29726701   6.000   4.002   5.636 -0.2290 -0.3396 -0.0532
   83MOL   C29826702   6.058   4.245   5.410 -0.2574  0.5759  0.3379
   83MOL   H29926703   6.109   4.322   5.604 -0.1500  0.6761 -0.7705
   83MOL   H30026704   6.276   4.194   5.691  0.5816 -0.6540 -1.5614
   83MOL   H30126705   6.212   3.772   5.768 -1.3378  0.3446  1.5052
   83MOL   H30226706   5.976   3.795   5.663 -2.1669  0.9022 -1.3085
   83MOL   H30326707   5.904   4.013   5.588 -0.8329  0.0934  1.2068
   83MOL   H30426708   6.103   4.150   5.381  1.9787  1.9355 -0.7524
   83MOL   H30526709   5.965   4.257   5.354  0.5572  0.7452 -1.0128
   83MOL   C30626710   6.138   4.356   5.339 -0.3472  0.1525 -0.3288
   83MOL   C30726711   6.280   4.356   5.386  0.3852  0.4962  0.1951
   83MOL   C30826712   6.345   4.473   5.420  0.0057 -0.8888 -0.2023
   83MOL   C30926713   6.477   4.472   5.466 -0.3342  0.2264 -0.6625
   83MOL  Cl31026714   6.543   4.616   5.524  0.0439  0.0949  0.1644
   83MOL   C31126715   6.554   4.356   5.459  0.4419 -0.3808 -0.2181
   83MOL   C31226716   6.494   4.231   5.420  0.2676 -0.1192 -0.2015
   83MOL   C31326717   6.357   4.236   5.391  0.0670  0.2865  0.6589
   83MOL   C31426718   6.129   4.327   5.187  0.0790  0.0086  0.3674
   83MOL   H31526719   6.090   4.450   5.364 -0.3467  0.6864 -2.2879
   83MOL   H31626720   6.297   4.570   5.410  1.3864 -0.1561  0.2411
   83MOL   H31726721   6.658   4.367   5.487 -0.2125  2.5855  1.2744
   83MOL   H31826722   6.559   4.146   5.429 -0.0960 -0.4458 -0.5645
   83MOL   H31926723   6.320   4.142   5.355 -0.7701  1.1085 -0.6757
   83MOL   H32026724   6.167   4.226   5.169 -1.3132 -0.7463  1.5912
   83MOL   H32126725   6.026   4.334   5.154  0.0170  0.8471  0.7241
   83MOL   H32226726   6.183   4.405   5.133 -0.5502 -0.8478 -1.5529
   84MOL     C126727   6.869   3.923   6.860  0.3534 -0.1006 -0.5835
   84MOL     C226728   6.945   3.808   6.913 -0.0893 -0.1998 -0.2967
   84MOL     C326729   7.003   3.816   7.047 -0.5265 -0.4331  0.9025
   84MOL     C426730   7.066   3.707   7.106 -0.0578 -0.1871  0.3743
   84MOL    Cl526731   7.134   3.729   7.267  0.0636  0.5201 -0.1240
   84MOL     C626732   7.085   3.589   7.030  0.2377 -0.4648 -0.0153
   84MOL     C726733   7.027   3.574   6.903 -0.1551  0.4735 -0.7715
   84MOL     C826734   6.964   3.687   6.842  0.5398 -0.7584  0.0110
   84MOL     C926735   6.952   4.046   6.813  1.0281  0.4903  0.1441
   84MOL    H1026736   6.795   3.956   6.932  1.6497  1.0769  0.2350
   84MOL    H1126737   7.001   3.912   7.097 -0.1437  1.9139 -3.3491
   84MOL    H1226738   7.143   3.508   7.071  1.8313  0.0442 -1.2215
   84MOL    H1326739   7.044   3.484   6.846  0.6015  0.0283  0.1481
   84MOL    H1426740   6.906   3.670   6.752 -3.6998  0.1484  2.5015
   84MOL    H1526741   6.868   4.109   6.785  0.2158  0.5742  2.6256
   84MOL    H1626742   6.988   4.105   6.897 -0.3093  0.5063  0.7253
   84MOL    H1726743   6.806   3.904   6.773 -2.0639  1.9875  0.6389
   84MOL    C1826744   7.059   4.019   6.703 -0.1354 -0.1018  0.1094
   84MOL    C1926745   6.994   3.945   6.584  0.1480 -0.5111 -0.7384
   84MOL    C2026746   7.066   3.836   6.515 -0.4464 -0.3992  0.4442
   84MOL    C2126747   7.016   3.780   6.397 -0.2130 -0.2934 -0.0037
   84MOL   Cl2226748   7.101   3.660   6.306 -0.1149  0.4786 -0.0064
   84MOL    C2326749   6.899   3.819   6.345 -0.3028 -0.8483  0.1699
   84MOL    C2426750   6.827   3.917   6.408  0.2299  0.4195 -0.8866
   84MOL    C2526751   6.871   3.984   6.521  0.1738 -0.2467  0.1401
   84MOL    C2626752   7.127   4.148   6.660  0.6682  0.3483  0.4587
   84MOL    H2726753   7.137   3.959   6.752  2.6559  3.5825  0.3662
   84MOL    H2826754   7.166   3.810   6.545 -0.7226  1.2074  2.8574
   84MOL    H2926755   6.859   3.771   6.257 -3.0351  1.3086  0.1734
   84MOL    H3026756   6.734   3.949   6.363 -0.7015 -0.6600  0.2524
   84MOL    H3126757   6.811   4.067   6.557 -1.1625 -0.3694 -1.7238
   84MOL    H3226758   7.057   4.227   6.632 -1.5770 -1.2706  1.3954
   84MOL    H3326759   7.176   4.190   6.749  1.3866  0.1027  0.1825
   84MOL    C3426760   7.241   4.156   6.556  0.1897  0.3209 -0.4920
   84MOL    C3526761   7.194   4.159   6.416  0.5922  0.9949  0.1513
   84MOL    C3626762   7.224   4.059   6.316 -0.1148 -0.4433  0.4354
   84MOL    C3726763   7.172   4.066   6.185  0.1340  0.2902 -0.5535
   84MOL   Cl3826764   7.200   3.938   6.075  0.4878  0.0645  0.4175
   84MOL    C3926765   7.101   4.177   6.140  0.0645 -0.1016  0.3253
   84MOL    C4026766   7.076   4.275   6.233 -0.3713 -0.5464  0.0156
   84MOL    C4126767   7.119   4.272   6.369 -0.2258  0.6244  0.1706
   84MOL    C4226768   7.337   4.276   6.591 -0.2000  0.0116  0.3528
   84MOL    H4326769   7.287   4.058   6.573  0.6412  0.6165 -0.0183
   84MOL    H4426770   7.283   3.976   6.351  0.9760  0.4697  0.7939
   84MOL    H4526771   7.059   4.184   6.041  1.5663 -1.8590 -0.4645
   84MOL    H4626772   7.017   4.364   6.212  0.0645 -0.2089  0.2183
   84MOL    H4726773   7.102   4.350   6.442  0.6346 -0.8565  1.9957
   84MOL    H4826774   7.266   4.356   6.611 -0.4025 -0.0260 -0.2010
   84MOL    H4926775   7.395   4.265   6.683 -0.5074  2.8676  0.9488
   84MOL    C5026776   7.440   4.318   6.481 -0.3608 -0.0344  0.1031
   84MOL    C5126777   7.528   4.435   6.527  0.0532 -1.1835  0.2999
   84MOL    C5226778   7.511   4.569   6.485 -0.9255 -0.2864 -0.0040
   84MOL    C5326779   7.605   4.663   6.527  0.2374 -0.2137 -0.0943
   84MOL   Cl5426780   7.570   4.825   6.478  0.2126 -0.0163  0.0792
   84MOL    C5526781   7.712   4.635   6.617 -0.0183 -0.5078  0.2876
   84MOL    C5626782   7.724   4.503   6.658 -0.3574 -0.4068  0.3797
   84MOL    C5726783   7.632   4.403   6.621  0.1599  0.6173 -0.3726
   84MOL    C5826784   7.517   4.197   6.430  0.1750  0.2344 -0.0642
   84MOL    H5926785   7.380   4.351   6.396  1.0014  1.5667 -0.2649
   84MOL    H6026786   7.436   4.604   6.416 -1.4585 -0.9628  0.2238
   84MOL    H6126787   7.773   4.715   6.655 -0.9714  0.1463  0.4789
   84MOL    H6226788   7.799   4.472   6.729 -0.5041 -0.2610  0.5979
   84MOL    H6326789   7.649   4.302   6.652 -2.6452  0.7040  1.5699
   84MOL    H6426790   7.531   4.133   6.517  0.4700  1.1134  0.5395
   84MOL    H6526791   7.456   4.135   6.363  0.5115 -2.8407  2.3476
   84MOL    C6626792   7.647   4.215   6.343  0.4248 -0.8673  0.3251
   84MOL    C6726793   7.731   4.089   6.344  0.0969  0.4538  0.2652
   84MOL    C6826794   7.662   3.959   6.348 -0.0790  0.5505 -0.3426
   84MOL    C6926795   7.751   3.849   6.328 -0.9685  0.0335  0.1899
   84MOL   Cl7026796   7.684   3.689   6.299 -0.0853 -0.1042 -0.0288
   84MOL    C7126797   7.889   3.868   6.310 -0.2760 -0.2195 -0.5679
   84MOL    C7226798   7.953   3.991   6.323  0.5228  0.5078 -0.9175
   84MOL    C7326799   7.870   4.103   6.335 -0.3206 -0.0512  0.2339
   84MOL    C7426800   7.625   4.249   6.187  0.1440  0.2894 -0.7079
   84MOL    H7526801   7.703   4.292   6.397  0.9681  1.2792 -3.1587
   84MOL    H7626802   7.557   3.935   6.357  0.3775 -1.4853 -0.1579
   84MOL    H7726803   7.954   3.784   6.289  0.4953  0.3935 -0.6819
   84MOL    H7826804   8.060   3.986   6.307  0.2708 -0.5323 -2.3595
   84MOL    H7926805   7.914   4.201   6.343  1.8431 -0.9286 -0.6184
   84MOL    H8026806   7.682   4.178   6.127  1.5774 -1.6711  2.8315
   84MOL    H8126807   7.521   4.239   6.158 -0.6261 -0.0333  1.9986
   84MOL    C8226808   7.668   4.387   6.154  0.0377 -0.4801  0.0904
   84MOL    C8326809   7.813   4.423   6.181  0.0918  0.4445 -0.1306
   84MOL    C8426810   7.847   4.514   6.284 -0.5932 -0.0699  0.2007
   84MOL    C8526811   7.978   4.544   6.315 -0.0023 -0.3798 -0.1309
   84MOL   Cl8626812   8.025   4.663   6.434  0.2028  0.2450 -0.3365
   84MOL    C8726813   8.083   4.483   6.245 -0.2845 -1.4191 -0.9400
   84MOL    C8826814   8.052   4.385   6.148  0.0820 -0.6347  0.2501
   84MOL    C8926815   7.917   4.358   6.116 -0.2749 -0.8543 -0.1951
   84MOL    C9026816   7.644   4.418   6.001 -0.0687  0.5072 -0.2536
   84MOL    H9126817   7.616   4.465   6.211  0.7291  0.3348 -0.3706
   84MOL    H9226818   7.767   4.570   6.331  0.4169  0.2731  1.5217
   84MOL    H9326819   8.186   4.507   6.267 -1.4805  3.1874  0.1004
   84MOL    H9426820   8.139   4.336   6.108  0.7337  1.0229 -0.4088
   84MOL    H9526821   7.885   4.284   6.043 -0.5933 -1.5077  0.6026
   84MOL    H9626822   7.697   4.510   5.979  3.6289 -1.5113 -0.1000
   84MOL    H9726823   7.688   4.339   5.941  2.4374  3.0898 -1.9513
   84MOL    C9826824   7.490   4.430   5.961 -0.0686 -0.2463 -0.0112
   84MOL    C9926825   7.426   4.539   6.048  0.0171 -0.3784 -0.1635
   84MOL   C10026826   7.319   4.517   6.133 -0.2934  0.2833 -0.1510
   84MOL   C10126827   7.263   4.623   6.210 -0.1116 -0.2937  0.4134
   84MOL  Cl10226828   7.119   4.597   6.304 -0.0574  0.2262 -0.0193
   84MOL   C10326829   7.319   4.751   6.191 -0.0124 -0.9056  0.3171
   84MOL   C10426830   7.430   4.775   6.109 -0.6500 -0.1983  0.1189
   84MOL   C10526831   7.476   4.670   6.030  0.6118 -0.6139 -0.0638
   84MOL   C10626832   7.471   4.448   5.805 -0.3090 -0.0312 -0.3516
   84MOL   H10726833   7.440   4.335   5.982 -2.4824  1.2597  1.2751
   84MOL   H10826834   7.276   4.418   6.131 -0.0993  0.1242  2.2732
   84MOL   H10926835   7.278   4.836   6.244 -0.5811 -0.8847 -0.1537
   84MOL   H11026836   7.471   4.874   6.092  1.5360 -1.2589 -1.0788
   84MOL   H11126837   7.561   4.672   5.964  0.9247 -0.8965  0.3272
   84MOL   H11226838   7.540   4.527   5.779  1.4862 -1.4978 -0.1589
   84MOL   H11326839   7.510   4.354   5.767 -0.2014 -0.4001  0.6329
   84MOL   C11426840   7.323   4.469   5.748  0.4959  0.2927  0.1623
   84MOL   C11526841   7.333   4.517   5.598 -0.0381  0.1665 -0.1645
   84MOL   C11626842   7.225   4.594   5.547 -0.0194 -0.5262  0.0109
   84MOL   C11726843   7.233   4.648   5.416 -0.0746 -0.3092  0.5410
   84MOL  Cl11826844   7.102   4.739   5.353  0.1384  0.4614  0.0665
   84MOL   C11926845   7.346   4.627   5.336  0.3090  0.6083  0.3663
   84MOL   C12026846   7.455   4.558   5.387 -0.1157  0.4228  0.1000
   84MOL   C12126847   7.448   4.494   5.517  0.3694  0.3463  0.6244
   84MOL   C12226848   7.226   4.348   5.774  0.4862 -0.2702  0.0850
   84MOL   H12326849   7.278   4.551   5.803 -1.3819 -0.6900  0.1280
   84MOL   H12426850   7.134   4.610   5.604 -0.3387 -1.6416 -0.1932
   84MOL   H12526851   7.338   4.673   5.239  1.5210 -1.1939 -0.6300
   84MOL   H12626852   7.547   4.540   5.333  0.4317 -1.8043  1.7147
   84MOL   H12726853   7.537   4.445   5.553  1.1546  2.2427  1.3394
   84MOL   H12826854   7.238   4.310   5.875  1.1140  0.2140  0.1946
   84MOL   H12926855   7.124   4.388   5.780  0.7123  0.2611  0.3855
   84MOL   C13026856   7.231   4.229   5.669 -0.5831 -0.3052  0.5286
   84MOL   C13126857   7.359   4.152   5.682 -0.4503  0.2806  0.3950
   84MOL   C13226858   7.452   4.147   5.574 -0.2643 -0.0416  0.0365
   84MOL   C13326859   7.568   4.068   5.595  0.2187 -0.0986  0.1969
   84MOL  Cl13426860   7.678   4.062   5.461  0.2338 -0.1375 -0.0796
   84MOL   C13526861   7.594   4.002   5.721 -0.9536 -0.3498  0.2105
   84MOL   C13626862   7.512   4.015   5.831  0.2970 -0.0381  0.3509
   84MOL   C13726863   7.393   4.088   5.810  0.0002 -0.0248  0.0276
   84MOL   C13826864   7.117   4.129   5.682 -0.8027 -0.0262  0.4682
   84MOL   H13926865   7.224   4.263   5.566  2.4011 -2.6644 -0.5330
   84MOL   H14026866   7.435   4.198   5.481  0.2132 -4.0547 -2.3381
   84MOL   H14126867   7.685   3.944   5.714 -2.5900 -2.8895 -0.3891
   84MOL   H14226868   7.530   3.973   5.929  0.3245  0.1534  0.4288
   84MOL   H14326869   7.328   4.106   5.893 -0.5859  1.7305 -0.7766
   84MOL   H14426870   7.146   4.041   5.626  0.0837  0.5733 -0.0190
   84MOL   H14526871   7.104   4.090   5.783  0.0828 -2.8813 -0.4995
   84MOL   C14626872   6.979   4.175   5.617  0.2278  0.9393 -0.1928
   84MOL   C14726873   6.984   4.239   5.477 -0.5321  0.4041  0.1639
   84MOL   C14826874   7.048   4.182   5.365  0.7220  0.0169 -0.2909
   84MOL   C14926875   7.038   4.244   5.236 -0.3474  0.9689  0.7551
   84MOL  Cl15026876   7.081   4.160   5.086  0.0935 -0.1319  0.3955
   84MOL   C15126877   6.988   4.374   5.223  0.5243 -0.4657 -0.6392
   84MOL   C15226878   6.932   4.435   5.343  0.2804  0.2171  0.0472
   84MOL   C15326879   6.929   4.365   5.462  0.1220 -0.3021 -0.6512
   84MOL   C15426880   6.889   4.053   5.611  0.1111 -0.6546  0.5105
   84MOL   H15526881   6.926   4.242   5.685 -2.1154 -1.8727  0.8562
   84MOL   H15626882   7.083   4.080   5.372  1.6642  0.3860  0.6229
   84MOL   H15726883   6.988   4.418   5.124 -1.9212  0.7873 -0.1067
   84MOL   H15826884   6.874   4.525   5.330  0.9152  0.7951  1.1203
   84MOL   H15926885   6.867   4.406   5.541  0.1979  0.3530 -0.9249
   84MOL   H16026886   6.796   4.065   5.555 -0.5892  0.0190  1.7854
   84MOL   H16126887   6.941   3.973   5.559 -0.4205 -1.5116  1.2794
   84MOL   C16226888   6.846   3.987   5.747 -0.4125 -0.2965  0.2203
   84MOL   C16326889   6.781   4.095   5.834 -0.2367 -0.0541 -0.2683
   84MOL   C16426890   6.676   4.176   5.778  0.4688 -0.0947 -0.5123
   84MOL   C16526891   6.601   4.253   5.872  0.1690 -0.0456 -0.3343
   84MOL  Cl16626892   6.464   4.340   5.810  0.1709  0.1275  0.1541
   84MOL   C16726893   6.631   4.258   6.010  0.4457 -0.3931  0.3728
   84MOL   C16826894   6.737   4.186   6.060  0.3656  0.6143  0.4571
   84MOL   C16926895   6.804   4.100   5.970  0.3412 -0.2248 -0.2304
   84MOL   C17026896   6.751   3.867   5.735 -0.1492 -0.2882 -0.7334
   84MOL   H17126897   6.929   3.943   5.802  0.5592  0.7208 -0.4203
   84MOL   H17226898   6.650   4.166   5.674  0.9986  1.9366 -0.8585
   84MOL   H17326899   6.559   4.311   6.071  1.3523  3.2244 -1.5310
   84MOL   H17426900   6.758   4.185   6.166 -0.5285 -1.7205  0.6428
   84MOL   H17526901   6.885   4.041   6.010 -1.3077 -3.2020 -1.1365
   84MOL   H17626902   6.723   3.839   5.836  0.6232 -1.8807 -0.9437
   84MOL   H17726903   6.661   3.895   5.680 -2.3290 -2.5934  1.5053
   84MOL   C17826904   6.822   3.749   5.674 -0.4867 -0.7719  0.2838
   84MOL   C17926905   6.933   3.696   5.762 -0.0954  0.1956  0.1135
   84MOL   C18026906   6.904   3.617   5.877 -0.1301 -0.0166 -0.4658
   84MOL   C18126907   7.008   3.548   5.939  0.4173 -0.5296 -0.1125
   84MOL  Cl18226908   6.985   3.427   6.061  0.1768 -0.4258  0.1617
   84MOL   C18326909   7.140   3.577   5.904  0.4025 -0.0148  0.2297
   84MOL   C18426910   7.172   3.651   5.792  0.7859 -0.6664  0.6019
   84MOL   C18526911   7.066   3.717   5.720 -0.8358 -0.2530 -0.0636
   84MOL   C18626912   6.717   3.643   5.637 -0.1416  0.6038  0.3083
   84MOL   H18726913   6.871   3.766   5.578  0.9596  2.5063  1.5365
   84MOL   H18826914   6.799   3.605   5.897 -0.7230  5.0508  0.1429
   84MOL   H18926915   7.214   3.518   5.956 -0.4026 -0.7610  0.5461
   84MOL   H19026916   7.276   3.672   5.772  0.0882 -1.0670 -4.0646
   84MOL   H19126917   7.086   3.787   5.640  0.3990  0.5951  0.9845
   84MOL   H19226918   6.771   3.556   5.601 -3.1026 -1.2906  0.2694
   84MOL   H19326919   6.658   3.629   5.728  1.4660 -1.2748  1.1071
   84MOL   C19426920   6.614   3.667   5.523  1.0436 -0.1398  0.4606
   84MOL   C19526921   6.669   3.754   5.413 -0.8692 -0.3413  0.4047
   84MOL   C19626922   6.784   3.713   5.337 -0.2969 -0.0526  0.3296
   84MOL   C19726923   6.843   3.812   5.253 -0.4232  0.3659  0.1314
   84MOL  Cl19826924   7.002   3.777   5.190 -0.4530 -0.5167  0.4291
   84MOL   C19926925   6.780   3.932   5.220  0.6719 -0.1251 -0.1575
   84MOL   C20026926   6.666   3.962   5.283  0.4781 -0.7830 -0.1446
   84MOL   C20126927   6.611   3.880   5.379  0.7475 -0.1476  0.2641
   84MOL   C20226928   6.564   3.532   5.459  0.2981  0.2228 -0.3203
   84MOL   H20326929   6.527   3.715   5.567  0.7481 -0.4839  0.2509
   84MOL   H20426930   6.842   3.622   5.345  0.4540  0.3347 -0.7264
   84MOL   H20526931   6.822   3.999   5.147 -0.7280  0.4355 -0.4551
   84MOL   H20626932   6.618   4.053   5.250  1.6002 -0.3119 -0.5099
   84MOL   H20726933   6.519   3.901   5.432  1.4519 -0.3488  1.5989
   84MOL   H20826934   6.487   3.552   5.384  0.4040 -0.4394 -0.6070
   84MOL   H20926935   6.644   3.490   5.398 -0.1738 -1.0873 -0.0660
   84MOL   C21026936   6.501   3.430   5.553  0.1531 -0.8380 -0.3554
   84MOL   C21126937   6.364   3.468   5.613 -0.4589  0.2085 -0.1374
   84MOL   C21226938   6.261   3.525   5.527 -0.1759 -0.3791 -0.0494
   84MOL   C21326939   6.135   3.562   5.580 -0.3715  0.1066 -0.1905
   84MOL  Cl21426940   6.013   3.597   5.462  0.1095  0.3272  0.4712
   84MOL   C21526941   6.109   3.544   5.719  0.0432 -0.0688  0.1728
   84MOL   C21626942   6.204   3.482   5.802 -0.1441  0.5296  0.8762
   84MOL   C21726943   6.331   3.445   5.749  0.3657 -0.0437  0.4854
   84MOL   C21826944   6.483   3.286   5.498 -0.7025 -0.6842  0.5053
   84MOL   H21926945   6.561   3.427   5.644  0.1862 -0.3113 -0.3598
   84MOL   H22026946   6.268   3.531   5.419 -0.6081  0.6625 -0.0300
   84MOL   H22126947   6.016   3.581   5.760  1.4009  2.4378  1.0738
   84MOL   H22226948   6.179   3.463   5.905 -2.5179  4.4235  1.1284
   84MOL   H22326949   6.401   3.409   5.823  0.2321  0.6558  0.9649
   84MOL   H22426950   6.438   3.231   5.581  0.9952  1.1884  2.7146
   84MOL   H22526951   6.423   3.272   5.407 -2.7924  0.2180  1.7066
   84MOL   C22626952   6.619   3.216   5.465  0.7839 -0.1447  0.1554
   84MOL   C22726953   6.744   3.239   5.554  0.8401 -0.2804  0.1717
   84MOL   C22826954   6.848   3.321   5.505 -0.0970  0.6711  0.9013
   84MOL   C22926955   6.966   3.335   5.580 -0.1317 -0.0024 -0.3707
   84MOL  Cl23026956   7.087   3.435   5.516  0.1346 -0.0218  0.2678
   84MOL   C23126957   6.983   3.279   5.714 -0.1400 -0.1673  0.1313
   84MOL   C23226958   6.869   3.208   5.765 -0.1862 -0.0907  0.0571
   84MOL   C23326959   6.758   3.184   5.680 -0.0840  0.7414 -0.3616
   84MOL   C23426960   6.592   3.064   5.432  0.1054  0.3663 -0.0055
   84MOL   H23526961   6.644   3.266   5.372 -2.3146  1.9990  0.4075
   84MOL   H23626962   6.849   3.362   5.406 -3.0287 -1.8147 -0.2375
   84MOL   H23726963   7.069   3.290   5.778  0.5932  1.9510 -1.1779
   84MOL   H23826964   6.872   3.164   5.863 -1.8458 -1.1711 -0.3643
   84MOL   H23926965   6.672   3.123   5.702  0.1515  0.8251  0.8229
   84MOL   H24026966   6.616   3.004   5.520  2.1068  1.1960  0.0398
   84MOL   H24126967   6.487   3.052   5.406  0.2266 -0.0742 -0.2827
   84MOL   C24226968   6.682   3.003   5.320 -0.1945  0.2378 -0.0828
   84MOL   C24326969   6.688   2.854   5.332  0.4047  0.3548  0.3577
   84MOL   C24426970   6.809   2.783   5.320 -0.0302  0.8291  0.4427
   84MOL   C24526971   6.803   2.642   5.328  0.7638  0.1024 -0.1550
   84MOL  Cl24626972   6.955   2.558   5.326  0.1929 -0.0610  0.3228
   84MOL   C24726973   6.682   2.574   5.335 -0.2218 -0.3985  0.3275
   84MOL   C24826974   6.566   2.648   5.336  0.7722 -0.5199 -0.4927
   84MOL   C24926975   6.569   2.784   5.327 -0.5048 -0.7670 -0.4223
   84MOL   C25026976   6.639   3.035   5.170 -0.9630  0.2992 -0.4835
   84MOL   H25126977   6.783   3.042   5.337 -0.3335 -0.2296  1.8979
   84MOL   H25226978   6.909   2.824   5.325  0.2091  0.2332  0.6528
   84MOL   H25326979   6.676   2.467   5.347  1.6612 -0.4500  0.9586
   84MOL   H25426980   6.469   2.603   5.349  0.6906 -0.0937  0.4618
   84MOL   H25526981   6.479   2.844   5.329  0.6749  1.0368  2.5415
   84MOL   H25626982   6.676   2.960   5.101 -2.3222 -1.6612  0.8590
   84MOL   H25726983   6.531   3.016   5.175 -0.6302 -1.1634  1.8960
   84MOL   C25826984   6.667   3.177   5.108  0.1354  0.3247 -0.5112
   84MOL   C25926985   6.811   3.226   5.118  0.2284 -0.2711 -0.0258
   84MOL   C26026986   6.924   3.146   5.088  0.4280 -0.3599  0.1207
   84MOL   C26126987   7.056   3.203   5.080 -0.0445  0.0883  0.4330
   84MOL  Cl26226988   7.190   3.104   5.033 -0.1133 -0.2273  0.3322
   84MOL   C26326989   7.073   3.332   5.120  0.7679 -0.2136  0.1541
   84MOL   C26426990   6.961   3.416   5.161  0.0123  0.2395 -0.1285
   84MOL   C26526991   6.829   3.366   5.154 -0.4342  0.2604  0.3649
   84MOL   C26626992   6.616   3.180   4.970  0.0938 -0.0050 -0.2315
   84MOL   H26726993   6.608   3.246   5.168  1.5109  0.7553  0.3744
   84MOL   H26826994   6.922   3.039   5.082  1.7309 -0.4039  0.3323
   84MOL   H26926995   7.175   3.369   5.125  0.4506  0.7841 -0.4941
   84MOL   H27026996   6.977   3.520   5.188  0.0817  0.7350 -2.0141
   84MOL   H27126997   6.739   3.417   5.186 -1.0085  0.5359 -1.6302
   84MOL   H27226998   6.631   3.281   4.932  1.4792 -1.0960 -2.6852
   84MOL   H27326999   6.680   3.121   4.905 -0.4430 -0.9461  0.0932
   84MOL   C27427000   6.471   3.138   4.948 -0.4755  0.4921  0.1140
   84MOL   C27527001   6.377   3.207   5.039 -0.1261 -0.3178 -0.3606
   84MOL   C27627002   6.287   3.125   5.106 -0.3612  0.1733  0.1873
   84MOL   C27727003   6.196   3.170   5.199  1.1570  0.1155  1.1600
   84MOL  Cl27827004   6.100   3.055   5.284  0.1338  0.3631 -0.2363
   84MOL   C27927005   6.183   3.309   5.221  0.6566  0.7471  0.0913
   84MOL   C28027006   6.275   3.401   5.155  0.5410  0.4723 -0.1373
   84MOL   C28127007   6.367   3.346   5.059 -0.3882 -0.2725 -0.6360
   84MOL   C28227008   6.437   3.152   4.795  0.3722 -0.3446  0.0977
   84MOL   H28327009   6.462   3.031   4.965  0.4013 -0.0366 -2.5181
   84MOL   H28427010   6.290   3.018   5.089 -1.1508 -0.0756  1.5800
   84MOL   H28527011   6.111   3.346   5.292 -0.0432  0.0086 -0.2295
   84MOL   H28627012   6.261   3.506   5.176  0.4902 -0.2276  3.5875
   84MOL   H28727013   6.425   3.420   5.005  0.5227 -1.0093 -0.6792
   84MOL   H28827014   6.331   3.157   4.771  0.5668  0.4625 -0.6269
   84MOL   H28927015   6.474   3.250   4.765  1.1546 -0.8844 -0.7540
   84MOL   C29027016   6.484   3.034   4.704 -0.1326  0.1990 -0.5582
   84MOL   C29127017   6.427   2.904   4.742 -0.3348 -0.0518  0.2018
   84MOL   C29227018   6.289   2.888   4.728  0.1040  0.3046  0.0242
   84MOL   C29327019   6.225   2.767   4.769  0.0809  0.6089 -0.4573
   84MOL  Cl29427020   6.060   2.725   4.739  0.1343  0.5081 -0.1658
   84MOL   C29527021   6.307   2.671   4.833 -0.2517 -0.8042 -0.0665
   84MOL   C29627022   6.448   2.684   4.848 -0.1263  0.2279  0.0974
   84MOL   C29727023   6.508   2.802   4.808 -0.1642 -0.4844  0.2236
   84MOL   C29827024   6.487   3.065   4.551 -0.2447 -0.2306 -0.2844
   84MOL   H29927025   6.588   3.019   4.732  0.0967  0.1704 -1.3930
   84MOL   H30027026   6.225   2.966   4.690 -0.1745  0.0531 -0.0276
   84MOL   H30127027   6.269   2.572   4.851  1.4657 -1.3149  0.7504
   84MOL   H30227028   6.506   2.602   4.886 -0.3049  0.2350  0.3889
   84MOL   H30327029   6.615   2.805   4.826 -0.2739 -2.5607  1.5059
   84MOL   H30427030   6.524   2.967   4.520  1.1486  0.0781  0.3578
   84MOL   H30527031   6.392   3.065   4.498  0.0484  1.7880 -0.8692
   84MOL   C30627032   6.566   3.185   4.501 -0.2276  0.1178 -0.8635
   84MOL   C30727033   6.715   3.173   4.543  0.4577  0.0295  0.4587
   84MOL   C30827034   6.768   3.268   4.637  0.4936 -0.8120  0.7391
   84MOL   C30927035   6.897   3.244   4.689 -0.2296  0.4786 -0.2870
   84MOL  Cl31027036   6.967   3.363   4.789  0.1074  0.2456 -0.0794
   84MOL   C31127037   6.975   3.131   4.642  0.3772 -0.6958 -0.1849
   84MOL   C31227038   6.922   3.048   4.540 -0.0031  0.3777 -0.5650
   84MOL   C31327039   6.794   3.068   4.492  0.3266  0.4464  0.1985
   84MOL   C31427040   6.550   3.187   4.349 -0.9324  0.2022 -0.2458
   84MOL   H31527041   6.523   3.279   4.533  0.6453  0.8260 -1.7396
   84MOL   H31627042   6.713   3.354   4.671  2.6212  1.0013 -0.3358
   84MOL   H31727043   7.078   3.117   4.672  0.4407 -2.9979 -1.3762
   84MOL   H31827044   6.980   2.969   4.494 -1.0087 -0.0005 -1.2008
   84MOL   H31927045   6.758   2.993   4.423 -1.7792  2.8557 -1.4043
   84MOL   H32027046   6.549   3.088   4.302  0.1910  0.0480  0.0372
   84MOL   H32127047   6.456   3.239   4.334 -1.3628  0.0924  1.8574
   84MOL   H32227048   6.628   3.252   4.310 -1.7376  0.8978 -0.7079
   85MOL     C127049   1.788   4.663   6.899  1.2451 -0.4334 -0.0214
   85MOL     C227050   1.713   4.773   6.968  0.5641  0.5233 -0.4409
   85MOL     C327051   1.696   4.893   6.897 -0.2639 -0.3473 -0.0138
   85MOL     C427052   1.629   4.998   6.958  0.2930  0.0767 -0.4255
   85MOL    Cl527053   1.621   5.150   6.876  0.2584 -0.1895  0.0028
   85MOL     C627054   1.571   4.985   7.087  0.1532 -0.0865 -0.4776
   85MOL     C727055   1.580   4.860   7.155  0.7951  0.3937 -0.1087
   85MOL     C827056   1.649   4.756   7.092  0.2578 -0.2983 -0.0458
   85MOL     C927057   1.935   4.674   6.910  0.2372 -0.2125 -0.5121
   85MOL    H1027058   1.764   4.667   6.793  3.4928  0.0376 -0.5444
   85MOL    H1127059   1.726   4.897   6.794 -1.3180 -1.4603 -0.3839
   85MOL    H1227060   1.527   5.073   7.131 -0.5879 -0.6590 -0.0637
   85MOL    H1327061   1.547   4.850   7.257  3.0691 -1.4215  0.5075
   85MOL    H1427062   1.657   4.656   7.133  0.6399 -0.3101 -0.1403
   85MOL    H1527063   1.955   4.769   6.860  0.3565  0.4042  0.6938
   85MOL    H1627064   1.975   4.698   7.008 -0.2028 -0.9671 -0.1444
   85MOL    H1727065   1.770   4.569   6.951 -0.6984 -0.3119 -0.4537
   85MOL    C1827066   2.010   4.556   6.853 -0.8643  0.9019  0.8161
   85MOL    C1927067   1.958   4.513   6.718  0.1170  0.2748  0.5858
   85MOL    C2027068   1.983   4.580   6.596  0.0876  0.2957 -0.1798
   85MOL    C2127069   1.937   4.533   6.473 -0.3074  0.4945  0.2618
   85MOL   Cl2227070   1.996   4.598   6.325 -0.0191  0.3519 -0.1779
   85MOL    C2327071   1.850   4.426   6.471 -0.3075 -0.1869 -0.3766
   85MOL    C2427072   1.821   4.351   6.589  0.1324  0.0807 -0.2793
   85MOL    C2527073   1.873   4.401   6.712 -0.1893  0.4197  0.4935
   85MOL    C2627074   2.159   4.575   6.857 -0.3134  0.2935 -0.4559
   85MOL    H2727075   1.975   4.477   6.919 -3.4252  2.4305  1.3494
   85MOL    H2827076   2.055   4.659   6.610 -0.0289  0.5633 -1.0194
   85MOL    H2927077   1.815   4.382   6.378 -0.2098 -0.8619 -0.0979
   85MOL    H3027078   1.755   4.266   6.577 -1.5096  1.0304  1.6715
   85MOL    H3127079   1.840   4.347   6.799 -1.8262 -2.3512 -1.7629
   85MOL    H3227080   2.192   4.643   6.779  1.1573 -1.2310 -1.2021
   85MOL    H3327081   2.178   4.621   6.954 -1.3330 -0.6729  0.2179
   85MOL    C3427082   2.241   4.448   6.836 -0.6072 -0.0401  1.1067
   85MOL    C3527083   2.395   4.468   6.823  0.3778  0.3669  0.0916
   85MOL    C3627084   2.465   4.586   6.870 -0.0375 -0.0364  0.4373
   85MOL    C3727085   2.605   4.585   6.884 -0.7177 -0.2342  0.0429
   85MOL   Cl3827086   2.678   4.719   6.964 -0.0288  0.2704 -0.2722
   85MOL    C3927087   2.677   4.477   6.829 -0.1682 -0.0735  0.2452
   85MOL    C4027088   2.611   4.373   6.768 -0.0264 -0.3221 -0.2725
   85MOL    C4127089   2.470   4.366   6.770 -0.0491 -0.6803 -0.0623
   85MOL    C4227090   2.217   4.343   6.949 -0.2832 -0.5978 -0.5347
   85MOL    H4327091   2.208   4.409   6.739  2.5265  0.0544 -0.0545
   85MOL    H4427092   2.408   4.660   6.925  0.2338  1.9613 -1.9053
   85MOL    H4527093   2.784   4.480   6.844  0.1767  0.5174 -2.1111
   85MOL    H4627094   2.671   4.290   6.731  1.5399  1.3453 -1.5929
   85MOL    H4727095   2.421   4.279   6.731 -1.6487 -0.0700  0.5556
   85MOL    H4827096   2.111   4.320   6.946 -0.7572  1.4845 -0.5135
   85MOL    H4927097   2.264   4.256   6.903  0.2502 -0.2592 -0.6323
   85MOL    C5027098   2.282   4.358   7.091 -0.4789 -0.5842  0.0179
   85MOL    C5127099   2.205   4.452   7.187 -0.1904  0.0951  0.2155
   85MOL    C5227100   2.067   4.436   7.206 -0.0023  0.2854  0.2426
   85MOL    C5327101   1.988   4.525   7.280 -0.3085  0.3511  0.4385
   85MOL   Cl5427102   1.819   4.491   7.305  0.1032 -0.0746 -0.4476
   85MOL    C5527103   2.051   4.637   7.333 -0.1196 -0.5449  0.6576
   85MOL    C5627104   2.193   4.656   7.321 -0.9242 -0.1014  0.8685
   85MOL    C5727105   2.269   4.559   7.250 -0.6655 -0.3870  0.2222
   85MOL    C5827106   2.326   4.222   7.150 -0.1038 -0.1022  0.1964
   85MOL    H5927107   2.370   4.419   7.076 -1.3821  0.6529 -0.2884
   85MOL    H6027108   2.018   4.352   7.159 -0.2000  0.3770  0.2843
   85MOL    H6127109   2.002   4.710   7.396 -1.7148  0.9877 -2.2630
   85MOL    H6227110   2.244   4.741   7.362 -1.1251  0.2806  0.3365
   85MOL    H6327111   2.373   4.574   7.226 -0.3278 -2.2823  0.4224
   85MOL    H6427112   2.242   4.179   7.204  1.4795 -1.0716  1.9230
   85MOL    H6527113   2.368   4.147   7.082  1.3188 -0.4665  1.4426
   85MOL    C6627114   2.434   4.228   7.265 -0.8846  0.2282  0.7372
   85MOL    C6727115   2.438   4.097   7.345 -0.1183 -0.0252 -0.1848
   85MOL    C6827116   2.462   3.974   7.277  0.0118 -0.2600  0.0484
   85MOL    C6927117   2.470   3.853   7.342  0.7893 -0.2959  0.8330
   85MOL   Cl7027118   2.503   3.709   7.257 -0.1910 -0.2467 -0.1461
   85MOL    C7127119   2.437   3.845   7.476 -0.5491  0.3332 -0.2833
   85MOL    C7227120   2.401   3.963   7.547  0.1171  0.0816 -0.2459
   85MOL    C7327121   2.407   4.092   7.487 -0.1784 -0.5302  0.1136
   85MOL    C7427122   2.582   4.253   7.211  0.2282 -0.2873 -0.3672
   85MOL    H7527123   2.418   4.313   7.332 -2.4494  0.4662  0.0835
   85MOL    H7627124   2.498   3.973   7.175 -0.6439 -1.5020 -0.1812
   85MOL    H7727125   2.430   3.753   7.532 -0.9759  0.6730  0.2218
   85MOL    H7827126   2.359   3.955   7.646 -0.2413 -0.2314 -0.4214
   85MOL    H7927127   2.382   4.177   7.549  2.5100  0.7904 -0.5163
   85MOL    H8027128   2.627   4.172   7.154  0.9653 -0.6840  0.7593
   85MOL    H8127129   2.576   4.327   7.131 -0.4064 -0.4389 -0.4646
   85MOL    C8227130   2.687   4.309   7.314 -0.0637 -0.3439  0.4050
   85MOL    C8327131   2.644   4.449   7.357 -0.0931 -0.0531  0.6690
   85MOL    C8427132   2.589   4.467   7.488 -0.0071  0.1891  0.1202
   85MOL    C8527133   2.565   4.601   7.530  0.3967  0.2803  0.2671
   85MOL   Cl8627134   2.506   4.636   7.690 -0.4052 -0.0010  0.0385
   85MOL    C8727135   2.584   4.705   7.438  0.1845  0.0376 -0.1004
   85MOL    C8827136   2.641   4.684   7.315  0.6766 -0.1442  0.0777
   85MOL    C8927137   2.669   4.554   7.276 -0.5027 -0.4791 -0.2305
   85MOL    C9027138   2.761   4.203   7.410 -0.2999  0.5736  0.1358
   85MOL    H9127139   2.772   4.329   7.248 -0.0258  0.3807  0.6684
   85MOL    H9227140   2.557   4.380   7.542 -1.8276  0.1670 -0.9660
   85MOL    H9327141   2.565   4.805   7.474 -1.0595 -0.0269 -0.5499
   85MOL    H9427142   2.668   4.762   7.245  0.1360  0.2695  0.3249
   85MOL    H9527143   2.711   4.526   7.181  1.1210  2.3027 -0.3532
   85MOL    H9627144   2.734   4.202   7.515  2.3353 -0.1005  0.8545
   85MOL    H9727145   2.734   4.102   7.379 -0.6474  0.2324  1.5041
   85MOL    C9827146   2.911   4.225   7.402  0.2671  0.4910  0.0241
   85MOL    C9927147   2.976   4.354   7.446  0.3238  0.6526 -0.5344
   85MOL   C10027148   2.931   4.411   7.567 -0.2906 -0.4157 -0.2872
   85MOL   C10127149   2.967   4.542   7.599 -0.3978  0.4019 -0.3136
   85MOL  Cl10227150   2.895   4.620   7.729  0.1284 -0.2304  0.0543
   85MOL   C10327151   3.064   4.612   7.522  0.4041 -0.1103  0.4999
   85MOL   C10427152   3.111   4.552   7.402  0.0479 -0.2320  0.8184
   85MOL   C10527153   3.058   4.427   7.366 -0.1573 -0.0374  0.4370
   85MOL   C10627154   2.975   4.112   7.493  0.0728 -0.7263 -0.2092
   85MOL   H10727155   2.942   4.209   7.299 -0.5897 -1.2969  0.0174
   85MOL   H10827156   2.866   4.352   7.630  0.1795 -0.5803  0.0443
   85MOL   H10927157   3.091   4.711   7.554 -1.0084 -0.3723  2.5905
   85MOL   H11027158   3.184   4.606   7.343 -0.7062  1.2130  1.2009
   85MOL   H11127159   3.087   4.391   7.268  2.1120  0.4014  0.9319
   85MOL   H11227160   3.080   4.134   7.507  0.2479 -0.3680 -1.9406
   85MOL   H11327161   2.935   4.116   7.594 -1.6645 -1.8073 -0.8259
   85MOL   C11427162   2.964   3.961   7.449  0.3329 -0.3336  0.2510
   85MOL   C11527163   2.963   3.940   7.299  0.2548  0.0543 -0.4872
   85MOL   C11627164   3.082   3.965   7.226 -0.0590  0.1152  0.2712
   85MOL   C11727165   3.073   3.964   7.084 -1.0485 -0.7588 -0.1045
   85MOL  Cl11827166   3.215   3.991   6.997  0.2563  0.0077  0.1108
   85MOL   C11927167   2.950   3.932   7.013  0.2582 -0.2893 -1.0649
   85MOL   C12027168   2.841   3.905   7.088  0.9050  0.6009 -0.7293
   85MOL   C12127169   2.846   3.903   7.227 -0.6699 -0.5823 -0.3723
   85MOL   C12227170   3.084   3.871   7.508 -0.2254 -0.3115  0.3353
   85MOL   H12327171   2.869   3.926   7.488  0.2440  0.3311  0.6309
   85MOL   H12427172   3.173   3.985   7.281 -0.4094  0.7535  0.6279
   85MOL   H12527173   2.941   3.930   6.905 -2.1464 -0.8369 -0.8882
   85MOL   H12627174   2.743   3.884   7.047  0.1882  1.0071  0.7473
   85MOL   H12727175   2.746   3.882   7.262 -1.7108  1.4703 -1.9865
   85MOL   H12827176   3.096   3.788   7.439  0.8932  1.2474 -1.3972
   85MOL   H12927177   3.179   3.926   7.505  0.0790 -0.9183 -2.6379
   85MOL   C13027178   3.067   3.812   7.652 -0.6907 -1.1741  0.1223
   85MOL   C13127179   2.932   3.758   7.679 -0.0129 -0.5586  0.0250
   85MOL   C13227180   2.867   3.677   7.584 -0.6609  0.2250  0.0564
   85MOL   C13327181   2.738   3.625   7.610 -0.8160  0.3317 -0.6612
   85MOL  Cl13427182   2.646   3.526   7.500 -0.0942  0.2257  0.2794
   85MOL   C13527183   2.680   3.648   7.739 -0.2042 -0.0091  0.5039
   85MOL   C13627184   2.748   3.709   7.840  0.1987 -0.4121  0.2857
   85MOL   C13727185   2.877   3.763   7.810 -0.3240 -0.8394 -0.7878
   85MOL   C13827186   3.166   3.701   7.692  0.5235  0.1348  1.1210
   85MOL   H13927187   3.078   3.900   7.716  2.0057 -1.5902  0.2730
   85MOL   H14027188   2.919   3.663   7.490  1.0510  1.8501  0.7217
   85MOL   H14127189   2.587   3.600   7.765 -1.6601  3.1648  1.3123
   85MOL   H14227190   2.699   3.705   7.936  0.4722 -2.2106  0.3686
   85MOL   H14327191   2.932   3.812   7.890 -1.3449  1.1547 -1.2686
   85MOL   H14427192   3.136   3.649   7.784 -1.4136 -1.3064 -0.2889
   85MOL   H14527193   3.161   3.618   7.622  0.8515  0.5999  0.5456
   85MOL   C14627194   3.313   3.753   7.694  0.9661 -0.3000 -0.5806
   85MOL   C14727195   3.345   3.863   7.789 -0.0078 -0.5096 -0.1397
   85MOL   C14827196   3.442   3.963   7.759  1.0627 -0.1888  0.0989
   85MOL   C14927197   3.472   4.058   7.853  0.3449  0.0922 -0.6635
   85MOL  Cl15027198   3.582   4.193   7.820 -0.3804 -0.1417  0.0350
   85MOL   C15127199   3.423   4.054   7.986  0.0722 -0.1935 -0.2162
   85MOL   C15227200   3.331   3.955   8.018  0.4809  0.5805  0.3740
   85MOL   C15327201   3.294   3.858   7.923 -0.2550  0.1019  0.6077
   85MOL   C15427202   3.402   3.624   7.710 -0.6923 -0.2589 -0.7640
   85MOL   H15527203   3.347   3.793   7.598  1.2599  0.3839 -0.1935
   85MOL   H15627204   3.482   3.978   7.659  2.1440 -2.3155  0.1921
   85MOL   H15727205   3.439   4.130   8.061 -0.5813 -0.1719 -0.0921
   85MOL   H15827206   3.289   3.955   8.117  1.7917 -0.7706  0.9496
   85MOL   H15927207   3.229   3.781   7.961 -0.0435 -1.6503 -2.4288
   85MOL   H16027208   3.373   3.575   7.803  1.3707 -0.1336 -0.0365
   85MOL   H16127209   3.393   3.554   7.627  2.0119  0.6143 -1.8552
   85MOL   C16227210   3.557   3.643   7.724 -1.0546 -0.6246  0.1985
   85MOL   C16327211   3.625   3.512   7.761 -0.5922 -0.1726 -0.1331
   85MOL   C16427212   3.643   3.466   7.896  0.2625 -0.7578  0.2707
   85MOL   C16527213   3.712   3.348   7.932  0.4243  0.1756  0.3623
   85MOL  Cl16627214   3.724   3.309   8.096  0.0129 -0.0408  0.0788
   85MOL   C16727215   3.755   3.261   7.832 -0.6125  0.1964  1.0058
   85MOL   C16827216   3.721   3.296   7.699 -0.0946  0.5332 -0.4003
   85MOL   C16927217   3.659   3.419   7.663 -0.4013  0.2888  0.0027
   85MOL   C17027218   3.626   3.716   7.602  0.5344  0.0397 -0.5395
   85MOL   H17127219   3.559   3.709   7.810  0.2817 -0.5315  0.1034
   85MOL   H17227220   3.612   3.532   7.976 -0.5080 -1.2602  0.3908
   85MOL   H17327221   3.816   3.176   7.859 -0.0246  0.4018  0.3534
   85MOL   H17427222   3.756   3.224   7.626 -2.7600 -1.7154  0.4466
   85MOL   H17527223   3.630   3.438   7.561 -2.0584 -1.8283  0.0565
   85MOL   H17627224   3.588   3.665   7.513 -2.4505 -0.4548  0.9441
   85MOL   H17727225   3.582   3.816   7.600  1.9050  0.7136  1.3236
   85MOL   C17827226   3.780   3.717   7.609 -0.5925 -0.5410  0.3359
   85MOL   C17927227   3.838   3.783   7.484  0.5246  0.3050  0.7807
   85MOL   C18027228   3.796   3.917   7.451  0.5496  0.3605  0.1379
   85MOL   C18127229   3.850   3.974   7.339  0.0366  0.3582  0.1580
   85MOL  Cl18227230   3.805   4.136   7.305 -0.0797  0.0615  0.1713
   85MOL   C18327231   3.939   3.904   7.251  0.7044 -0.3908  0.0108
   85MOL   C18427232   3.981   3.773   7.282 -0.3557  1.1926 -0.8759
   85MOL   C18527233   3.929   3.712   7.398 -0.6706  0.4706  0.0650
   85MOL   C18627234   3.829   3.792   7.734  0.2600 -0.5674 -0.3203
   85MOL   H18727235   3.806   3.611   7.607  0.7871 -0.1960 -0.4354
   85MOL   H18827236   3.720   3.967   7.509 -0.5955  1.6156 -2.3478
   85MOL   H18927237   3.977   3.959   7.167  2.2913 -1.3062  0.1041
   85MOL   H19027238   4.044   3.713   7.218  0.0869  0.8420 -0.1126
   85MOL   H19127239   3.969   3.613   7.417 -0.7140 -0.1081 -2.7364
   85MOL   H19227240   3.863   3.893   7.711 -2.6261  0.7479  0.8769
   85MOL   H19327241   3.737   3.812   7.788 -0.1171  1.3071 -1.6075
   85MOL   C19427242   3.917   3.716   7.834 -0.0259 -0.2412 -0.1758
   85MOL   C19527243   4.031   3.634   7.771 -0.0922  0.1324  0.6110
   85MOL   C19627244   4.126   3.690   7.688 -0.2158  0.4438 -0.2817
   85MOL   C19727245   4.223   3.609   7.629  0.4242 -0.0901 -0.2368
   85MOL  Cl19827246   4.359   3.685   7.547  0.4432  0.3397 -0.1122
   85MOL   C19927247   4.237   3.472   7.655  0.4702  0.0906 -0.0484
   85MOL   C20027248   4.140   3.418   7.746 -0.2352  0.3049  0.0339
   85MOL   C20127249   4.037   3.495   7.799  0.3225 -0.2162 -0.5750
   85MOL   C20227250   3.955   3.816   7.954  0.2811 -0.6238  0.4221
   85MOL   H20327251   3.849   3.643   7.878 -0.9934  0.7320 -0.0347
   85MOL   H20427252   4.121   3.798   7.677  2.0876  0.7599  1.4264
   85MOL   H20527253   4.317   3.414   7.611  1.1785 -0.2498  1.6807
   85MOL   H20627254   4.149   3.314   7.774 -0.7581  0.7061  1.7219
   85MOL   H20727255   3.966   3.446   7.863 -0.1211  0.2659 -0.6966
   85MOL   H20827256   4.032   3.771   8.018  0.1887  1.1566  1.8125
   85MOL   H20927257   4.004   3.902   7.909  2.6076 -0.9468  2.2068
   85MOL   C21027258   3.854   3.877   8.049 -0.2435 -0.6122 -0.3945
   85MOL   C21127259   3.762   3.783   8.123 -0.3374  0.4948 -0.5197
   85MOL   C21227260   3.808   3.687   8.217  0.1643  0.0414 -0.2800
   85MOL   C21327261   3.715   3.608   8.287  0.1993  0.9346 -1.0457
   85MOL  Cl21427262   3.769   3.480   8.380 -0.3106 -0.2393  0.0140
   85MOL   C21527263   3.581   3.631   8.269 -0.0604 -0.8498 -0.1237
   85MOL   C21627264   3.537   3.729   8.181  0.0091 -0.1125 -0.2051
   85MOL   C21727265   3.627   3.809   8.109  0.6951  0.0217 -0.3012
   85MOL   C21827266   3.921   3.965   8.160 -0.0424  0.2943 -0.4561
   85MOL   H21927267   3.796   3.943   7.984 -0.9973  0.5717  1.4387
   85MOL   H22027268   3.913   3.665   8.228  0.4808  0.8953 -1.5295
   85MOL   H22127269   3.507   3.567   8.316  1.7693 -1.7582  1.6034
   85MOL   H22227270   3.431   3.752   8.183  0.2729  1.1604 -0.5253
   85MOL   H22327271   3.592   3.882   8.038 -1.4773 -1.3217 -0.6724
   85MOL   H22427272   3.848   3.998   8.234 -1.2321 -3.0563 -0.0681
   85MOL   H22527273   3.976   3.888   8.213  0.2108  0.6903 -0.1444
   85MOL   C22627274   4.010   4.092   8.131 -0.2232 -0.7887  0.5501
   85MOL   C22727275   3.935   4.219   8.071 -0.2290  0.2075  0.3149
   85MOL   C22827276   3.955   4.258   7.939 -0.3759 -0.1480 -0.0940
   85MOL   C22927277   3.901   4.385   7.894  0.0612  0.4243  0.2827
   85MOL  Cl23027278   3.887   4.412   7.725  0.3148  0.2808 -0.2032
   85MOL   C23127279   3.841   4.477   7.983  0.3381  0.2356  0.2525
   85MOL   C23227280   3.807   4.430   8.112  0.4801  0.0813 -0.3476
   85MOL   C23327281   3.855   4.302   8.158  0.3135 -0.4742 -0.1001
   85MOL   C23427282   4.100   4.118   8.249 -0.6802  0.3007 -0.5822
   85MOL   H23527283   4.073   4.057   8.049 -0.2892  0.4568 -0.0437
   85MOL   H23627284   4.015   4.204   7.867 -0.9881 -1.7994  0.6103
   85MOL   H23727285   3.808   4.576   7.957  0.7457 -0.1423 -1.7992
   85MOL   H23827286   3.745   4.494   8.173  1.2018 -0.2258  0.7291
   85MOL   H23927287   3.833   4.277   8.261 -2.5333  1.2528 -0.2238
   85MOL   H24027288   4.046   4.177   8.322  0.5429  1.5230 -0.6396
   85MOL   H24127289   4.143   4.023   8.283  0.4406  1.4394  1.2575
   85MOL   C24227290   4.221   4.215   8.236  0.5036  0.0940 -0.5484
   85MOL   C24327291   4.282   4.240   8.375 -0.2896  0.5236  0.0368
   85MOL   C24427292   4.266   4.365   0.003 -0.4236 -0.1115 -0.0593
   85MOL   C24527293   4.329   4.388   0.127  0.6379  0.5366 -0.3792
   85MOL  Cl24627294   4.288   4.533   0.210 -0.4821  0.2273 -0.0595
   85MOL   C24727295   4.378   4.279   0.203  0.2339 -0.0633 -0.3543
   85MOL   C24827296   4.392   4.157   0.142 -0.5398 -0.5720  0.1413
   85MOL   C24927297   4.352   4.136   0.002 -0.3260 -0.2202 -0.4945
   85MOL   C25027298   4.318   4.184   8.121  0.8965 -0.0746  0.3326
   85MOL   H25127299   4.163   4.304   8.210  0.1986  0.2662  0.6927
   85MOL   H25227300   4.220   4.446   8.384 -1.3219 -0.2121  0.5508
   85MOL   H25327301   4.399   4.284   0.309  1.1072  0.4222 -0.5470
   85MOL   H25427302   4.427   4.070   0.196  2.4819  0.9743  0.8171
   85MOL   H25527303   4.386   4.044   8.392  1.2319 -0.2572  0.6736
   85MOL   H25627304   4.346   4.079   8.129  2.3563  0.1002 -2.0363
   85MOL   H25727305   4.266   4.194   8.026  4.3565 -1.1666 -1.7926
   85MOL   C25827306   4.445   4.278   8.109  0.4251  0.2543  0.3929
   85MOL   C25927307   4.546   4.252   8.223 -0.2551  0.6065 -0.1886
   85MOL   C26027308   4.606   4.125   8.252  0.2339 -0.2501  0.0369
   85MOL   C26127309   4.694   4.109   8.356  0.4120 -0.5222  0.2958
   85MOL  Cl26227310   4.768   3.952   8.366  0.1878  0.3338 -0.0933
   85MOL   C26327311   4.744   4.217   8.433 -1.0497  0.3164  0.3129
   85MOL   C26427312   4.698   4.341   8.398  0.5194 -0.4382  0.0056
   85MOL   C26527313   4.596   4.358   8.298 -0.8339 -0.6151  0.3268
   85MOL   C26627314   4.526   4.266   7.976  0.5576 -0.2645 -0.3366
   85MOL   H26727315   4.419   4.384   8.110  0.5719  0.2951  0.0278
   85MOL   H26827316   4.580   4.043   8.186 -2.2451 -0.2205  0.9202
   85MOL   H26927317   4.827   4.208   0.067 -0.8427 -2.1417 -0.1989
   85MOL   H27027318   4.731   4.429   0.017 -2.9997  1.1660 -0.2388
   85MOL   H27127319   4.565   4.461   8.289  1.0955 -0.0816 -0.4911
   85MOL   H27227320   4.626   4.301   8.001 -0.6344  1.4743  2.2714
   85MOL   H27327321   4.535   4.158   7.969  0.5900 -0.2826 -0.0438
   85MOL   C27427322   4.462   4.331   7.849 -0.9115  0.0786  0.3965
   85MOL   C27527323   4.419   4.472   7.880 -0.0173 -0.7532  0.3910
   85MOL   C27627324   4.297   4.517   7.826 -0.1296 -0.1768  0.3182
   85MOL   C27727325   4.252   4.652   7.837  0.1299 -0.1291 -0.0529
   85MOL  Cl27827326   4.102   4.696   7.769 -0.2526  0.4663 -0.2823
   85MOL   C27927327   4.335   4.742   7.912  0.2376 -0.4768 -0.7106
   85MOL   C28027328   4.458   4.698   7.970  0.5748 -0.1492 -0.2884
   85MOL   C28127329   4.500   4.563   7.950 -0.0940 -0.0052 -0.1479
   85MOL   C28227330   4.563   4.341   7.730 -0.2431  0.2774  0.1505
   85MOL   H28327331   4.373   4.271   7.830 -0.0184 -1.0665 -0.2442
   85MOL   H28427332   4.237   4.451   7.766 -1.4731  0.4099  0.9872
   85MOL   H28527333   4.299   4.840   7.939 -1.0518 -1.6468  1.9369
   85MOL   H28627334   4.524   4.769   8.017  2.0485 -0.8343 -1.2898
   85MOL   H28727335   4.603   4.539   7.970 -0.1460 -1.1886 -1.2730
   85MOL   H28827336   4.558   4.438   7.682 -0.7999  1.5282  2.6267
   85MOL   H28927337   4.663   4.333   7.773  0.1965 -1.8332 -1.1947
   85MOL   C29027338   4.535   4.232   7.614  0.0141  0.3609 -0.0767
   85MOL   C29127339   4.395   4.261   7.544  0.2510  0.2283  0.6949
   85MOL   C29227340   4.288   4.171   7.566  0.3567 -0.1594 -0.2064
   85MOL   C29327341   4.157   4.205   7.519 -0.7724  0.0160 -0.6508
   85MOL  Cl29427342   4.022   4.116   7.563  0.2607  0.1789  0.0899
   85MOL   C29527343   4.134   4.316   7.440 -0.4054 -0.1044 -0.4269
   85MOL   C29627344   4.242   4.400   7.399  0.2393 -1.0109 -0.5170
   85MOL   C29727345   4.374   4.375   7.454 -0.2499 -0.8120 -0.0508
   85MOL   C29827346   4.644   4.235   7.508 -0.6973  0.5294 -0.0678
   85MOL   H29927347   4.544   4.133   7.660 -1.5424  0.3981  0.3401
   85MOL   H30027348   4.296   4.083   7.628 -0.9365 -0.3798 -0.3448
   85MOL   H30127349   4.029   4.330   7.418 -0.2151 -0.9299 -1.9198
   85MOL   H30227350   4.215   4.490   7.347 -0.5822 -1.9517 -1.7500
   85MOL   H30327351   4.458   4.437   7.426 -0.9021 -0.1654 -0.5811
   85MOL   H30427352   4.638   4.342   7.486 -0.4269  0.7883  1.0369
   85MOL   H30527353   4.742   4.213   7.550 -0.2344  0.7335 -1.0328
   85MOL   C30627354   4.630   4.136   7.389 -0.2819  0.0875 -0.2577
   85MOL   C30727355   4.715   4.187   7.271 -0.3944 -0.2481 -0.2784
   85MOL   C30827356   4.856   4.190   7.291  0.1138  0.1272  0.3921
   85MOL   C30927357   4.943   4.241   7.193  0.4245  0.0248  0.2065
   85MOL  Cl31027358   5.114   4.252   7.213  0.0944 -0.0146 -0.3633
   85MOL   C31127359   4.888   4.304   7.075 -0.0982  0.3119  0.2051
   85MOL   C31227360   4.747   4.302   7.060 -0.5438 -0.1379  0.3093
   85MOL   C31327361   4.657   4.237   7.154 -0.1882 -0.7159 -0.3902
   85MOL   C31427362   4.672   3.990   7.419  0.5996 -0.1419  0.2658
   85MOL   H31527363   4.525   4.135   7.359 -0.3759  1.2247  0.0156
   85MOL   H31627364   4.899   4.157   7.384  1.1978  0.9248  0.1930
   85MOL   H31727365   4.943   4.359   7.001  1.0424 -1.4691 -0.3172
   85MOL   H31827366   4.711   4.345   6.967  1.7100 -1.2534 -1.1260
   85MOL   H31927367   4.551   4.244   7.134 -0.0388  1.1999 -0.6718
   85MOL   H32027368   4.672   3.920   7.335  0.8654 -1.4100  1.2997
   85MOL   H32127369   4.772   3.988   7.461  0.4924  0.7325  0.5578
   85MOL   H32227370   4.594   3.955   7.486 -0.4950  0.2197 -0.7896
   86MOL     C127371   6.427   0.149   6.860  0.1130  0.1544  0.6186
   86MOL     C227372   6.390   0.019   6.924 -0.5506  0.6929 -0.0161
   86MOL     C327373   6.486   8.351   6.928  0.4132 -0.3065 -0.1302
   86MOL     C427374   6.453   8.226   6.986 -0.1762 -0.6559  0.4828
   86MOL    Cl527375   6.566   8.092   6.966  0.2647 -0.2917 -0.2150
   86MOL     C627376   6.320   8.203   7.029 -0.8306  0.2625  0.3087
   86MOL     C727377   6.226   8.306   7.025  0.3233 -0.3790  0.6351
   86MOL     C827378   6.256   8.426   6.959  0.6986 -0.2589  0.2304
   86MOL     C927379   6.382   0.276   6.938 -0.5168 -0.3589 -0.1874
   86MOL    H1027380   6.390   0.148   6.758  1.0707  2.2052  0.2338
   86MOL    H1127381   6.584   8.374   6.889  1.1088 -0.8583  1.2454
   86MOL    H1227382   6.294   8.101   7.055 -0.5158  0.1528  0.1967
   86MOL    H1327383   6.125   8.276   7.048  0.1845  1.1319  2.0409
   86MOL    H1427384   6.177   0.058   6.932  0.1975 -1.8835 -2.5704
   86MOL    H1527385   6.275   0.300   6.944 -0.2352  0.3852  2.5383
   86MOL    H1627386   6.411   0.260   7.042 -2.4410  0.7581  0.5728
   86MOL    H1727387   6.535   0.145   6.849  0.0476  0.2891 -0.0682
   86MOL    C1827388   6.451   0.403   6.887 -0.2555 -0.2141 -0.0779
   86MOL    C1927389   6.440   0.412   6.734 -0.3976  0.4065 -0.1901
   86MOL    C2027390   6.551   0.393   6.658  0.2041  1.2732 -0.2885
   86MOL    C2127391   6.543   0.398   6.518 -0.1562 -1.0590  0.0851
   86MOL   Cl2227392   6.677   0.350   6.426 -0.4267 -0.1032  0.3341
   86MOL    C2327393   6.423   0.426   6.459 -0.5196  0.6065 -0.2945
   86MOL    C2427394   6.309   0.463   6.532  0.1053 -0.0593  0.2696
   86MOL    C2527395   6.319   0.451   6.675  0.1106  0.6333  0.5228
   86MOL    C2627396   6.410   0.523   6.976 -0.1694  0.0687  0.1774
   86MOL    H2727397   6.559   0.393   6.902 -0.4679 -0.4742  1.3080
   86MOL    H2827398   6.646   0.365   6.703 -0.2852  0.2312  0.1062
   86MOL    H2927399   6.425   0.426   6.351  0.9169  0.9480 -0.2753
   86MOL    H3027400   6.220   0.493   6.477  0.0044  0.0018  0.4652
   86MOL    H3127401   6.226   0.472   6.725 -0.7593 -0.1323 -0.7289
   86MOL    H3227402   6.428   0.615   6.920  0.5505  0.9476  1.7844
   86MOL    H3327403   6.302   0.521   6.986 -0.1769 -0.2295  0.0367
   86MOL    C3427404   6.462   0.543   7.120 -0.3903  0.2498 -0.5761
   86MOL    C3527405   6.598   0.604   7.124  0.8076 -0.5311 -0.5227
   86MOL    C3627406   6.710   0.532   7.167 -0.8876  0.6789  0.5335
   86MOL    C3727407   6.837   0.596   7.173  0.3556  0.3400 -0.0209
   86MOL   Cl3827408   6.972   0.506   7.230 -0.0205  0.0726 -0.2145
   86MOL    C3927409   6.852   0.732   7.138 -0.3762 -0.1154  0.2563
   86MOL    C4027410   6.741   0.803   7.091 -0.1458  0.3879 -0.8593
   86MOL    C4127411   6.614   0.739   7.084  0.5779  0.7927 -0.1761
   86MOL    C4227412   6.363   0.619   7.212  0.2711  0.3349 -0.4928
   86MOL    H4327413   6.477   0.448   7.171  1.1131  0.8824  0.1834
   86MOL    H4427414   6.705   0.430   7.201  1.2069  0.2653 -0.3292
   86MOL    H4527415   6.949   0.779   7.133  0.0470 -1.2360 -2.8726
   86MOL    H4627416   6.746   0.906   7.057 -0.0731  0.9959  0.9606
   86MOL    H4727417   6.526   0.781   7.037 -1.0608 -0.1946  1.9014
   86MOL    H4827418   6.414   0.653   7.302 -1.5543 -2.6448  1.7607
   86MOL    H4927419   6.318   0.699   7.153 -1.0673  0.4346  0.6115
   86MOL    C5027420   6.237   0.532   7.261 -0.1783 -0.1021 -0.3428
   86MOL    C5127421   6.273   0.398   7.324 -1.1281 -0.2818  0.4337
   86MOL    C5227422   6.359   0.389   7.432 -0.5347  0.0988  0.3894
   86MOL    C5327423   6.401   0.264   7.482  0.1279  0.1300  0.0040
   86MOL   Cl5427424   6.510   0.250   7.611 -0.0916  0.1828 -0.0563
   86MOL    C5527425   6.347   0.146   7.427  0.1794 -0.5154 -0.2153
   86MOL    C5627426   6.253   0.154   7.323  0.0160  0.1718 -0.5887
   86MOL    C5727427   6.223   0.283   7.264 -0.1740 -0.2517 -0.1809
   86MOL    C5827428   6.155   0.615   7.365 -0.0023  0.0384  0.8704
   86MOL    H5927429   6.183   0.522   7.167  0.9457  1.4764 -1.1853
   86MOL    H6027430   6.393   0.482   7.476 -1.5691  0.3343  0.7088
   86MOL    H6127431   6.375   0.053   7.474  0.6987  0.8375  2.2333
   86MOL    H6227432   6.222   0.059   7.284 -1.3811  0.5643 -0.4600
   86MOL    H6327433   6.155   0.292   7.180 -1.0184 -0.1943  0.5015
   86MOL    H6427434   6.077   0.552   7.406  0.8666 -2.3967 -1.1207
   86MOL    H6527435   6.220   0.639   7.449 -1.1856 -1.3819  2.2109
   86MOL    C6627436   6.090   0.747   7.317 -0.3200 -0.1563  0.1238
   86MOL    C6727437   6.007   0.727   7.190  0.2411  1.1386 -0.2508
   86MOL    C6827438   6.031   0.807   7.076  0.1888 -0.0225  0.2011
   86MOL    C6927439   5.940   0.803   6.963 -0.2876 -0.3035  0.7364
   86MOL   Cl7027440   5.982   0.889   6.817 -0.2859  0.2690  0.0631
   86MOL    C7127441   5.823   0.727   6.975  0.5105 -0.0710  0.3755
   86MOL    C7227442   5.794   0.653   7.090  0.7776  1.2011  0.0876
   86MOL    C7327443   5.889   0.646   7.197  0.6464 -0.1521  0.3308
   86MOL    C7427444   6.007   0.812   7.422  0.8126  0.0189  0.0738
   86MOL    H7527445   6.181   0.804   7.300 -0.2303 -0.3357  0.0006
   86MOL    H7627446   6.116   0.873   7.082  0.9494 -1.0707  1.1596
   86MOL    H7727447   5.756   0.727   6.890  1.4746  0.0435 -0.3845
   86MOL    H7827448   5.705   0.591   7.091  0.2528  1.8965 -1.6370
   86MOL    H7927449   5.860   0.587   7.282  0.8206  0.3474  0.7421
   86MOL    H8027450   5.919   0.749   7.433  0.1656  1.2577  2.2421
   86MOL    H8127451   6.058   0.806   7.518  0.3632  2.4181  0.4892
   86MOL    C8227452   5.965   0.953   7.379  0.1359 -0.0257 -0.0252
   86MOL    C8327453   5.816   0.965   7.397 -0.3304  0.0752  0.4412
   86MOL    C8427454   5.748   0.984   7.520 -0.5567  0.7309 -1.0330
   86MOL    C8527455   5.608   0.996   7.530 -0.0042 -0.7948 -0.0134
   86MOL   Cl8627456   5.546   1.026   7.687 -0.0381  0.3062  0.2442
   86MOL    C8727457   5.530   0.964   7.418 -0.5180  0.5159 -0.4204
   86MOL    C8827458   5.595   0.943   7.294  0.9312  0.2360 -0.5636
   86MOL    C8927459   5.733   0.940   7.280 -0.0707  0.7459 -0.1825
   86MOL    C9027460   6.037   1.069   7.456  0.7504 -0.1556 -0.0320
   86MOL    H9127461   5.984   0.980   7.275  2.0702 -0.1516  0.2655
   86MOL    H9227462   5.794   0.995   7.617 -0.8589  0.0726 -0.8066
   86MOL    H9327463   5.423   0.975   7.419 -0.7892 -2.0277  1.7525
   86MOL    H9427464   5.534   0.943   7.205 -0.1686  0.2658  0.1826
   86MOL    H9527465   5.787   0.929   7.187  0.4442  2.6803 -0.1419
   86MOL    H9627466   5.982   1.162   7.443  0.5435  0.1448  2.5778
   86MOL    H9727467   6.037   1.043   7.562 -2.5789  0.0829  0.0947
   86MOL    C9827468   6.186   1.081   7.416  0.1430 -0.1201 -0.4722
   86MOL    C9927469   6.201   1.095   7.262 -0.8023  0.5750  0.6238
   86MOL   C10027470   6.125   1.185   7.182  0.4216 -0.4720  0.0929
   86MOL   C10127471   6.154   1.204   7.043 -0.3728  0.4608  0.8945
   86MOL  Cl10227472   6.078   1.330   6.953 -0.0630 -0.4768 -0.5009
   86MOL   C10327473   6.262   1.133   6.985 -0.2819  0.1261  0.0448
   86MOL   C10427474   6.338   1.047   7.066 -0.0476 -0.6401 -0.5103
   86MOL   C10527475   6.311   1.025   7.206 -0.3426 -0.4420 -0.0335
   86MOL   C10627476   6.258   1.192   7.499  0.0661  0.3034 -0.2988
   86MOL   H10727477   6.225   0.985   7.447  1.8252  1.2464  1.7936
   86MOL   H10827478   6.052   1.254   7.221 -0.2376 -0.1425 -1.6965
   86MOL   H10927479   6.287   1.136   6.880  0.7560  1.8183  0.3312
   86MOL   H11027480   6.431   1.008   7.027  1.3266  1.9266  0.0229
   86MOL   H11127481   6.379   0.965   7.264 -0.4978  0.6236  1.2659
   86MOL   H11227482   6.308   1.266   7.436  0.0409 -0.0725 -0.7610
   86MOL   H11327483   6.180   1.254   7.544  1.3668  2.4830 -0.9551
   86MOL   C11427484   6.366   1.138   7.592 -0.6220  0.5902  0.2868
   86MOL   C11527485   6.470   1.049   7.523  0.2116  0.4797 -0.0939
   86MOL   C11627486   6.571   1.102   7.435 -0.1059  0.3319  0.1888
   86MOL   C11727487   6.661   1.017   7.373  0.0569 -0.0342  0.0325
   86MOL  Cl11827488   6.793   1.093   7.296 -0.3489 -0.3144  0.0696
   86MOL   C11927489   6.648   0.878   7.387 -0.3266 -0.7512  0.0906
   86MOL   C12027490   6.546   0.827   7.464 -0.2428 -0.6690  0.6791
   86MOL   C12127491   6.466   0.910   7.545  0.1315 -0.5316 -0.8586
   86MOL   C12227492   6.434   1.251   7.678 -0.2491 -0.7979 -0.0793
   86MOL   H12327493   6.308   1.077   7.661 -2.4287  3.1096  1.0680
   86MOL   H12427494   6.574   1.209   7.421  1.1497  0.0129 -2.3056
   86MOL   H12527495   6.715   0.810   7.337  0.6198 -0.8535  1.4730
   86MOL   H12627496   6.541   0.719   7.468  2.6594 -0.7687  4.7618
   86MOL   H12727497   6.396   0.869   7.615  0.2494  0.0469 -0.4000
   86MOL   H12827498   6.466   1.320   7.600 -2.2817  0.2358 -0.0394
   86MOL   H12927499   6.365   1.310   7.738 -1.5339 -1.2614 -1.0500
   86MOL   C13027500   6.561   1.220   7.766  0.0271 -0.4703 -0.4697
   86MOL   C13127501   6.600   1.361   7.811 -0.9027 -0.3040 -0.2332
   86MOL   C13227502   6.542   1.417   7.933 -0.2908 -0.3814  0.2164
   86MOL   C13327503   6.567   1.551   7.970 -0.0252  0.0369 -0.5211
   86MOL  Cl13427504   6.503   1.607   8.122 -0.0642 -0.0810 -0.2196
   86MOL   C13527505   6.645   1.632   7.884  0.4675 -0.0976  0.2706
   86MOL   C13627506   6.701   1.579   7.770 -0.1360 -0.1451 -0.5819
   86MOL   C13727507   6.687   1.446   7.736  0.2777 -0.4025 -0.5576
   86MOL   C13827508   6.541   1.121   7.883 -0.4317 -0.0673 -0.1950
   86MOL   H13927509   6.638   1.186   7.697 -1.2610 -0.7979 -1.7655
   86MOL   H14027510   6.471   1.362   7.993 -1.4545 -1.3039 -1.9410
   86MOL   H14127511   6.652   1.731   7.925 -0.1719  0.6356 -1.3458
   86MOL   H14227512   6.761   1.648   7.712  2.4131 -1.8969 -0.1150
   86MOL   H14327513   6.728   1.408   7.643  0.7181 -0.1702 -0.4623
   86MOL   H14427514   6.449   1.147   7.935  0.5370  0.0285  1.5093
   86MOL   H14527515   6.520   1.026   7.834  0.3249 -0.5770  0.4737
   86MOL   C14627516   6.668   1.110   7.977 -0.0099 -0.3020 -0.8004
   86MOL   C14727517   6.635   0.992   8.070  0.4678  0.2632  0.0472
   86MOL   C14827518   6.575   1.011   8.198  0.0768 -0.2543  0.3212
   86MOL   C14927519   6.534   0.893   8.275 -0.4920 -0.6888 -1.0046
   86MOL  Cl15027520   6.488   0.923   0.006 -0.2264 -0.2177  0.1256
   86MOL   C15127521   6.535   0.764   8.225  0.0695  0.2574  0.0317
   86MOL   C15227522   6.585   0.746   8.096  0.5700  0.1390 -0.6860
   86MOL   C15327523   6.642   0.855   8.023  0.3597 -0.8741 -0.4898
   86MOL   C15427524   6.808   1.095   7.907 -0.0886  0.5358 -0.0806
   86MOL   H15527525   6.671   1.199   8.040 -0.7388 -1.4195  0.8473
   86MOL   H15627526   6.563   1.112   8.235 -0.6425  0.0545 -0.7236
   86MOL   H15727527   6.504   0.673   8.274 -2.0106  1.1549  0.4436
   86MOL   H15827528   6.588   0.653   8.042 -1.7418 -1.7226  2.2344
   86MOL   H15927529   6.696   0.835   7.932 -1.3516 -0.5983 -1.5840
   86MOL   H16027530   6.876   1.015   7.937  0.4172  0.5363 -1.2046
   86MOL   H16127531   6.797   1.081   7.800  0.1509 -0.1045 -0.0232
   86MOL   C16227532   6.908   1.217   7.936  0.4937 -0.1762 -0.4555
   86MOL   C16327533   6.936   1.234   8.082  0.4811 -0.6950  0.1555
   86MOL   C16427534   7.035   1.148   8.148 -0.6302 -0.0735  0.2932
   86MOL   C16527535   7.086   1.188   8.273  0.0509 -0.5706 -0.8570
   86MOL  Cl16627536   7.211   1.087   8.353 -0.3304 -0.2626 -0.0809
   86MOL   C16727537   7.022   1.294   8.343  0.6413  0.1473  0.5660
   86MOL   C16827538   6.913   1.367   8.292  0.0729 -0.1139 -0.3604
   86MOL   C16927539   6.877   1.337   8.162 -0.1111 -0.0304 -0.2520
   86MOL   C17027540   7.032   1.208   7.850 -0.2764 -0.1358  1.1787
   86MOL   H17127541   6.849   1.306   7.914  0.9132  0.3543  0.5361
   86MOL   H17227542   7.090   1.068   8.100  0.7166  0.8663  0.2166
   86MOL   H17327543   7.059   1.301   0.009 -0.3181  0.5440  0.8977
   86MOL   H17427544   6.875   1.445   8.356  0.4839  1.5572 -2.1141
   86MOL   H17527545   6.823   1.415   8.110 -1.8522  0.3380  1.9988
   86MOL   H17627546   7.115   1.146   7.884 -0.3743 -1.1676 -0.4084
   86MOL   H17727547   7.009   1.175   7.749  0.3147 -0.3072  1.0941
   86MOL   C17827548   7.092   1.346   7.803  0.1311  0.1937 -0.6895
   86MOL   C17927549   7.118   1.443   7.918 -0.5957  0.1649 -0.0505
   86MOL   C18027550   7.076   1.575   7.905 -0.3279  0.6145  0.1891
   86MOL   C18127551   7.105   1.659   8.009 -0.0115 -0.1495  0.6085
   86MOL  Cl18227552   7.063   1.833   7.989 -0.0349  0.3217  0.0039
   86MOL   C18327553   7.172   1.616   8.122 -0.0832 -0.0198 -0.3027
   86MOL   C18427554   7.222   1.484   8.131 -0.3835 -0.0087  1.2995
   86MOL   C18527555   7.196   1.399   8.023 -0.0058  0.5361 -0.0688
   86MOL   C18627556   7.224   1.339   7.725 -0.3522 -0.0362  0.4777
   86MOL   H18727557   7.018   1.395   7.740  1.2322  0.8647 -1.4644
   86MOL   H18827558   7.023   1.609   7.818 -0.3062  1.6326  0.5622
   86MOL   H18927559   7.203   1.683   8.200 -0.6169 -0.1769  0.0502
   86MOL   H19027560   7.278   1.454   8.218  1.7391  0.5379  0.1443
   86MOL   H19127561   7.231   1.298   8.014 -1.2785  0.2304 -1.9616
   86MOL   H19227562   7.285   1.426   7.751  1.5100 -1.4883  1.1234
   86MOL   H19327563   7.276   1.250   7.760 -2.1606  0.0923  3.6727
   86MOL   C19427564   7.200   1.349   7.570  0.5950  0.2598  0.3117
   86MOL   C19527565   7.125   1.481   7.531 -0.4324 -0.2258  0.1209
   86MOL   C19627566   6.995   1.480   7.470  0.1890 -0.5337 -0.5991
   86MOL   C19727567   6.925   1.595   7.442  0.1311 -0.8032  0.0024
   86MOL  Cl19827568   6.772   1.575   7.363 -0.0292 -0.2779  0.2128
   86MOL   C19927569   6.995   1.719   7.451 -0.1122 -0.5651  0.2250
   86MOL   C20027570   7.128   1.727   7.491 -1.2619  0.2658  0.1105
   86MOL   C20127571   7.191   1.605   7.531 -0.1592 -0.5065  0.1785
   86MOL   C20227572   7.332   1.329   7.493  0.5567  0.2171  0.1363
   86MOL   H20327573   7.136   1.270   7.531  1.2006  0.2332 -0.6352
   86MOL   H20427574   6.955   1.381   7.452 -1.7932  0.6498 -2.9630
   86MOL   H20527575   6.950   1.816   7.436 -0.6603 -0.8553 -0.0646
   86MOL   H20627576   7.181   1.820   7.498 -1.9147  0.9720 -3.3203
   86MOL   H20727577   7.291   1.607   7.572  0.8425 -2.8204 -2.0335
   86MOL   H20827578   7.405   1.402   7.526  1.5322 -1.3333  1.5061
   86MOL   H20927579   7.359   1.225   7.513  0.0923 -0.1323 -0.9785
   86MOL   C21027580   7.326   1.342   7.339  0.0215  0.3000 -0.5394
   86MOL   C21127581   7.474   1.332   7.293  0.8579  0.0961 -0.1577
   86MOL   C21227582   7.555   1.448   7.288  0.1769  0.7290 -0.9185
   86MOL   C21327583   7.680   1.437   7.225 -0.1183  0.1038 -0.1823
   86MOL  Cl21427584   7.775   1.578   7.200  0.2760  0.0401  0.0859
   86MOL   C21527585   7.726   1.317   7.171  0.0779  0.4840  0.0644
   86MOL   C21627586   7.654   1.201   7.192  0.1204  0.3549  0.0397
   86MOL   C21727587   7.523   1.213   7.247 -0.2680  0.4691  0.5996
   86MOL   C21827588   7.229   1.249   7.262 -0.5211  0.3255  0.9358
   86MOL   H21927589   7.291   1.444   7.323 -0.1710  0.0795 -1.5621
   86MOL   H22027590   7.516   1.544   7.318  2.6030  0.7529  2.4638
   86MOL   H22127591   7.826   1.324   7.132  0.1527 -1.3174 -0.0995
   86MOL   H22227592   7.697   1.105   7.171 -0.9839 -0.8262  2.8748
   86MOL   H22327593   7.466   1.123   7.259  0.1771  0.1575  0.4090
   86MOL   H22427594   7.263   1.146   7.273 -1.3554 -0.0724 -0.0924
   86MOL   H22527595   7.133   1.249   7.315 -1.0495  0.2095 -0.0073
   86MOL   C22627596   7.218   1.288   7.110  0.1082 -0.1439 -0.3517
   86MOL   C22727597   7.173   1.171   7.025 -0.6804  0.3811 -0.2261
   86MOL   C22827598   7.267   1.095   6.949 -0.3770 -0.5569  0.2041
   86MOL   C22927599   7.224   0.989   6.860  1.1522  0.0286  1.3217
   86MOL  Cl23027600   7.335   0.913   6.746  0.0157 -0.2067  0.1166
   86MOL   C23127601   7.086   0.957   6.862 -0.0315  0.6562  0.1511
   86MOL   C23227602   6.998   1.027   6.943 -0.2303 -0.4563  0.0278
   86MOL   C23327603   7.040   1.133   7.023  0.5360 -1.1606 -0.6831
   86MOL   C23427604   7.154   1.434   7.085 -0.0685 -0.5362  0.2691
   86MOL   H23527605   7.322   1.300   7.078 -0.0791  0.8252 -0.6244
   86MOL   H23627606   7.374   1.111   6.946 -0.2347 -1.5579 -0.3779
   86MOL   H23727607   7.048   0.872   6.806 -0.1544  0.2253  0.8868
   86MOL   H23827608   6.894   0.998   6.943 -0.0472 -1.1446 -0.5751
   86MOL   H23927609   6.974   1.195   7.081 -1.0271 -0.1547 -3.4747
   86MOL   H24027610   7.078   1.438   7.164 -0.4634 -0.3756 -0.1165
   86MOL   H24127611   7.223   1.513   7.114 -1.5306 -0.2848  3.3571
   86MOL   C24227612   7.076   1.462   6.948 -0.6267 -0.1482  0.6335
   86MOL   C24327613   6.997   1.592   6.956  0.0672  0.6448 -0.3552
   86MOL   C24427614   7.053   1.724   6.935 -0.0782 -0.4854  0.3078
   86MOL   C24527615   6.968   1.838   6.940  0.6813  0.2113  0.1709
   86MOL  Cl24627616   7.036   1.995   6.919  0.1318  0.0914 -0.0810
   86MOL   C24727617   6.829   1.826   6.962 -0.4008  0.3104 -0.4784
   86MOL   C24827618   6.776   1.695   6.984  0.1657  0.8170 -0.3080
   86MOL   C24927619   6.860   1.583   6.994  0.5529  0.4027 -0.3195
   86MOL   C25027620   7.170   1.448   6.823  0.2699  0.1699 -0.2459
   86MOL   H25127621   7.013   1.373   6.946 -1.9350  0.7896 -1.3682
   86MOL   H25227622   7.160   1.728   6.919 -0.1559  0.6681  0.0268
   86MOL   H25327623   6.767   1.914   6.971  1.3555  1.5245  0.0535
   86MOL   H25427624   6.671   1.673   6.995  0.2122  0.5054 -0.5038
   86MOL   H25527625   6.813   1.487   7.009  2.3539 -0.7982 -2.3158
   86MOL   H25627626   7.240   1.530   6.838 -1.2622  1.2777  1.0565
   86MOL   H25727627   7.242   1.366   6.822  0.6005  0.4721 -1.1799
   86MOL   C25827628   7.100   1.453   6.689 -0.5623  0.5904 -0.2405
   86MOL   C25927629   7.194   1.480   6.575 -0.3804 -0.1080  0.3176
   86MOL   C26027630   7.302   1.391   6.549 -1.7618 -0.2119  0.1402
   86MOL   C26127631   7.404   1.420   6.452  0.2960  0.2765 -1.0313
   86MOL  Cl26227632   7.532   1.309   6.409 -0.3148  0.0644 -0.0008
   86MOL   C26327633   7.394   1.542   6.380  0.4741  0.0515 -0.0732
   86MOL   C26427634   7.284   1.631   6.402  0.1955  0.5888  0.1317
   86MOL   C26527635   7.194   1.601   6.506  0.1179 -0.0118 -0.0154
   86MOL   C26627636   7.005   1.328   6.674 -0.5286 -0.1596  0.2292
   86MOL   H26727637   7.044   1.545   6.707  1.9695  1.8887  1.2646
   86MOL   H26827638   7.309   1.295   6.598  2.7358  0.3176  0.7285
   86MOL   H26927639   7.466   1.549   6.300 -0.3133 -2.5199 -1.0564
   86MOL   H27027640   7.274   1.725   6.349 -0.8946 -0.4748 -1.6173
   86MOL   H27127641   7.119   1.674   6.534  0.8128  0.1917  1.3504
   86MOL   H27227642   7.022   1.296   6.571 -0.2918 -1.0216  0.5378
   86MOL   H27327643   7.032   1.247   6.742 -0.7336 -0.5734 -0.1798
   86MOL   C27427644   6.859   1.363   6.700 -0.9359 -0.3165 -0.1542
   86MOL   C27527645   6.803   1.453   6.588 -0.5512  0.1625 -0.0517
   86MOL   C27627646   6.724   1.565   6.621 -0.1335 -0.3544 -0.4367
   86MOL   C27727647   6.672   1.643   6.522  0.9111 -0.0935 -0.6959
   86MOL  Cl27827648   6.557   1.759   6.577 -0.0754  0.2795 -0.3950
   86MOL   C27927649   6.688   1.618   6.385  0.7887 -0.0898  0.4153
   86MOL   C28027650   6.769   1.504   6.350 -0.3352 -0.1824 -0.3144
   86MOL   C28127651   6.828   1.424   6.451  0.0481  0.3937 -0.5095
   86MOL   C28227652   6.771   1.228   6.702  0.4173 -0.4184  0.0358
   86MOL   H28327653   6.849   1.408   6.799  2.5744 -0.5857  0.3923
   86MOL   H28427654   6.705   1.577   6.726  1.9328  2.4620 -0.3232
   86MOL   H28527655   6.640   1.686   6.316 -1.9320 -2.2774  0.0317
   86MOL   H28627656   6.793   1.496   6.245 -0.5628 -0.0188 -0.3778
   86MOL   H28727657   6.879   1.337   6.412  0.0048 -0.1150  0.5618
   86MOL   H28827658   6.792   1.187   6.603 -2.6324 -0.7035 -0.5425
   86MOL   H28927659   6.817   1.178   6.788  0.0021  0.0980  0.5561
   86MOL   C29027660   6.623   1.231   6.738 -0.6712 -0.8910  0.9432
   86MOL   C29127661   6.591   1.308   6.859 -0.0926 -0.3079 -0.1049
   86MOL   C29227662   6.507   1.419   6.856  0.4565  0.1610 -0.0135
   86MOL   C29327663   6.472   1.477   6.978 -0.1367  0.3459  0.3265
   86MOL  Cl29427664   6.377   1.621   6.984  0.0822 -0.2439  0.1222
   86MOL   C29527665   6.522   1.428   7.098  0.0739 -0.0485 -0.0243
   86MOL   C29627666   6.617   1.324   7.098 -0.5833 -0.5541  0.4209
   86MOL   C29727667   6.646   1.264   6.978  0.9804  0.1826  0.1645
   86MOL   C29827668   6.523   1.257   6.614 -0.2157  0.5698 -0.3025
   86MOL   H29927669   6.610   1.128   6.770 -1.4961 -1.1644 -0.2284
   86MOL   H30027670   6.458   1.460   6.769 -0.6691 -0.0948  0.4911
   86MOL   H30127671   6.500   1.483   7.189  0.1897  4.0033 -2.3001
   86MOL   H30227672   6.673   1.307   7.189  0.7766  3.1038  0.3371
   86MOL   H30327673   6.727   1.193   6.983  0.5068 -0.3090  0.9834
   86MOL   H30427674   6.426   1.249   6.663  0.4491  0.9164  1.0788
   86MOL   H30527675   6.529   1.357   6.572 -0.8308  0.1604 -1.3809
   86MOL   C30627676   6.510   1.149   6.512  0.8457 -0.1198  0.4587
   86MOL   C30727677   6.366   1.145   6.454 -0.0456  0.0433 -0.1808
   86MOL   C30827678   6.328   1.233   6.353  0.0524  0.2801  0.0676
   86MOL   C30927679   6.197   1.228   6.297  0.1223 -0.4109 -0.0250
   86MOL  Cl31027680   6.160   1.346   6.182 -0.3153 -0.2301  0.1559
   86MOL   C31127681   6.110   1.122   6.340 -0.1741 -0.2069 -0.4112
   86MOL   C31227682   6.155   1.022   6.436 -0.2423 -0.6431 -0.1482
   86MOL   C31327683   6.283   1.037   6.490 -0.9413  0.5079  0.2321
   86MOL   C31427684   6.614   1.139   6.404  0.0618  0.3396 -0.4337
   86MOL   H31527685   6.539   1.058   6.563  1.2340 -0.9727 -1.2337
   86MOL   H31627686   6.405   1.302   6.321  0.3314 -1.2169 -2.6463
   86MOL   H31727687   6.013   1.111   6.293  0.8097 -0.9623 -2.3602
   86MOL   H31827688   6.100   0.934   6.467  1.6231 -1.6670  0.3475
   86MOL   H31927689   6.322   0.965   6.561  2.0881  0.8306 -1.0048
   86MOL   H32027690   6.715   1.109   6.433 -1.0599 -0.0324  3.2855
   86MOL   H32127691   6.601   1.068   6.323 -0.0188  0.0807 -0.1931
   86MOL   H32227692   6.639   1.232   6.353 -1.3658  0.3053 -1.2013
   87MOL     C127693   3.160   0.356   5.479  0.1118  0.3161 -0.6113
   87MOL     C227694   3.190   0.251   5.370  0.4109 -0.5865  0.3928
   87MOL     C327695   3.088   0.164   5.337  0.5972  0.2475 -0.3289
   87MOL     C427696   3.099   0.075   5.229  0.2415  0.0032 -0.1644
   87MOL    Cl527697   2.977   8.388   5.189 -0.5318 -0.3950  0.4525
   87MOL     C627698   3.219   0.063   5.164 -0.4467 -0.5500 -0.1383
   87MOL     C727699   3.325   0.153   5.194 -0.1189 -0.9758  0.7017
   87MOL     C827700   3.310   0.248   5.297 -0.0639 -0.3602 -0.1634
   87MOL     C927701   3.142   0.503   5.437 -0.6134  0.1162  0.0717
   87MOL    H1027702   3.251   0.344   5.538 -1.3484 -2.7046  1.2039
   87MOL    H1127703   2.995   0.163   5.392  1.3663 -0.2419  0.9616
   87MOL    H1227704   3.229   8.424   5.085  0.8732 -0.2999 -0.2265
   87MOL    H1327705   3.410   0.160   5.128 -1.7640  3.8662 -1.1147
   87MOL    H1427706   3.392   0.312   5.325 -0.9967  1.0552 -0.5996
   87MOL    H1527707   3.222   0.526   5.367  1.5117 -1.8437  1.8018
   87MOL    H1627708   3.050   0.498   5.378  0.5583  1.9235 -1.9626
   87MOL    H1727709   3.071   0.323   5.533  0.6928 -1.9550 -0.9667
   87MOL    C1827710   3.152   0.618   5.546  0.1465  0.2605  0.5397
   87MOL    C1927711   3.148   0.756   5.492  0.0470  0.1292 -0.1751
   87MOL    C2027712   3.034   0.797   5.420 -0.0967  0.3994 -0.7520
   87MOL    C2127713   3.024   0.932   5.382 -0.3674 -0.1542  0.3070
   87MOL   Cl2227714   2.884   0.990   5.303  0.0592 -0.0281  0.1047
   87MOL    C2327715   3.130   1.024   5.413  0.4007 -0.1162  0.1318
   87MOL    C2427716   3.245   0.979   5.470  0.7053 -0.0901 -0.4254
   87MOL    C2527717   3.255   0.845   5.509 -0.6776  0.0880 -0.6501
   87MOL    C2627718   3.040   0.592   5.654  0.1265  0.5549  0.1056
   87MOL    H2727719   3.255   0.598   5.576  1.0533  1.9273 -1.3719
   87MOL    H2827720   2.953   0.726   5.410  0.9686 -0.9009 -0.4239
   87MOL    H2927721   3.112   1.129   5.395 -0.6716 -0.3854 -0.3998
   87MOL    H3027722   3.330   1.044   5.484  1.8868 -2.0161  1.6681
   87MOL    H3127723   3.348   0.824   5.560 -0.7569  1.5047  0.1148
   87MOL    H3227724   2.951   0.619   5.597 -0.8352 -2.3714  0.1122
   87MOL    H3327725   3.036   0.490   5.693  1.1267  0.5965  0.3368
   87MOL    C3427726   3.058   0.696   5.766  0.3003 -0.2601 -0.1454
   87MOL    C3527727   2.922   0.710   5.826 -0.6958  0.1305 -0.5596
   87MOL    C3627728   2.833   0.807   5.781  0.6331 -0.0390 -0.7410
   87MOL    C3727729   2.703   0.818   5.838  0.6300  0.2784 -0.0404
   87MOL   Cl3827730   2.594   0.939   5.788 -0.0212  0.3448  0.0242
   87MOL    C3927731   2.662   0.710   5.917 -0.1374 -0.4366 -0.1809
   87MOL    C4027732   2.739   0.604   5.967  0.8109  0.9020  0.3921
   87MOL    C4127733   2.869   0.601   5.913 -0.0419 -0.0826 -0.3520
   87MOL    C4227734   3.170   0.653   5.868  0.2971 -1.2608  0.1731
   87MOL    H4327735   3.084   0.794   5.726 -1.6684  0.8965  1.3118
   87MOL    H4427736   2.873   0.878   5.711  1.2154  0.5012  0.1296
   87MOL    H4527737   2.558   0.720   5.945  0.3005  0.3353  1.2089
   87MOL    H4627738   2.706   0.522   6.029 -1.9789  0.7232 -1.2732
   87MOL    H4727739   2.925   0.510   5.927 -0.2391 -0.0790  0.4678
   87MOL    H4827740   3.144   0.561   5.920  1.5307 -1.2106  0.8896
   87MOL    H4927741   3.252   0.633   5.798  1.7755  1.8625  0.9099
   87MOL    C5027742   3.222   0.749   5.980  0.6996 -0.2693 -0.2897
   87MOL    C5127743   3.285   0.685   6.097  0.2208  0.1604  0.0199
   87MOL    C5227744   3.387   0.589   6.078 -0.3523 -0.4344 -0.4404
   87MOL    C5327745   3.461   0.532   6.181  0.2718 -0.3305 -0.4515
   87MOL   Cl5427746   3.590   0.419   6.149  0.1146 -0.0308  0.0942
   87MOL    C5527747   3.432   0.558   6.312  0.0436 -0.3989 -0.3179
   87MOL    C5627748   3.334   0.661   6.333 -0.2053  0.7421  0.7320
   87MOL    C5727749   3.255   0.722   6.232  0.1904 -0.1963 -0.0264
   87MOL    C5827750   3.294   0.874   5.920  0.5306 -0.0064 -0.0415
   87MOL    H5927751   3.128   0.784   6.023 -0.1347  0.1502 -2.3624
   87MOL    H6027752   3.428   0.575   5.980  0.5608 -2.4284  0.2032
   87MOL    H6127753   3.481   0.508   6.394 -0.0278 -1.2433 -0.7763
   87MOL    H6227754   3.320   0.689   6.437  0.1075  0.2828  0.8970
   87MOL    H6327755   3.173   0.788   6.258  0.1992  0.0594 -0.6246
   87MOL    H6427756   3.382   0.837   5.868  0.9253 -1.4033  1.5606
   87MOL    H6527757   3.234   0.911   5.837  0.5161 -0.0611 -0.0552
   87MOL    C6627758   3.330   0.990   6.017 -0.4769 -0.6625  0.1893
   87MOL    C6727759   3.437   1.081   5.956  0.7858 -1.0286 -0.1589
   87MOL    C6827760   3.536   1.133   6.048  0.4829 -0.3426 -0.4989
   87MOL    C6927761   3.634   1.211   5.992 -0.3818 -0.3738  0.6367
   87MOL   Cl7027762   3.766   1.275   6.094 -0.1280 -0.1311 -0.0141
   87MOL    C7127763   3.633   1.248   5.853  0.4496  0.3694  0.3053
   87MOL    C7227764   3.527   1.210   5.765 -0.1941 -0.4357 -0.3391
   87MOL    C7327765   3.437   1.117   5.818 -0.8741  0.2660 -0.4025
   87MOL    C7427766   3.207   1.079   6.052  0.2864  0.7642  0.3157
   87MOL    H7527767   3.375   0.943   6.104 -0.2733 -0.3353  0.2605
   87MOL    H7627768   3.541   1.108   6.153 -1.2935  1.0550 -0.0499
   87MOL    H7727769   3.711   1.310   5.811  1.4546 -1.5561 -0.6950
   87MOL    H7827770   3.525   1.248   5.664  0.7727 -1.3636 -0.7087
   87MOL    H7927771   3.357   1.091   5.751 -1.5349 -0.3075  0.6009
   87MOL    H8027772   3.219   1.176   6.004 -1.8597  0.6671 -0.4927
   87MOL    H8127773   3.118   1.035   6.008  1.2865  0.1637 -1.1266
   87MOL    C8227774   3.173   1.107   6.199 -0.2599  0.9188  0.5011
   87MOL    C8327775   3.295   1.156   6.279  0.5777  1.0795  0.0196
   87MOL    C8427776   3.336   1.288   6.271 -0.3702 -0.0143  0.2003
   87MOL    C8527777   3.437   1.335   6.357  0.6064  0.0152 -0.1977
   87MOL   Cl8627778   3.491   1.495   6.346 -0.0039 -0.3413 -0.1558
   87MOL    C8727779   3.479   1.255   6.463 -0.3790  0.1992 -0.3051
   87MOL    C8827780   3.428   1.124   6.481 -0.2402 -0.5496  0.5888
   87MOL    C8927781   3.348   1.070   6.380 -0.7966 -0.3628  0.3159
   87MOL    C9027782   3.055   1.196   6.221  0.3342 -0.2422  0.5626
   87MOL    H9127783   3.158   1.004   6.230 -1.3667  0.1922 -2.2488
   87MOL    H9227784   3.290   1.358   6.202  0.7781  0.9653  0.4130
   87MOL    H9327785   3.545   1.297   6.537  1.3140 -0.8806 -1.1574
   87MOL    H9427786   3.445   1.052   6.559  2.3262 -0.9956 -0.3133
   87MOL    H9527787   3.300   0.974   6.394  0.4597 -0.9530  0.6149
   87MOL    H9627788   3.033   1.220   6.325 -2.9475 -1.8023  0.3119
   87MOL    H9727789   3.083   1.282   6.161  1.9885  1.0187  3.1055
   87MOL    C9827790   2.919   1.150   6.164  0.2830  0.5310 -0.6194
   87MOL    C9927791   2.876   1.030   6.242  0.2646  0.2591  0.7548
   87MOL   C10027792   2.835   1.046   6.370  0.2078  0.5867 -0.3619
   87MOL   C10127793   2.799   0.933   6.445  0.0013 -0.2930 -0.6408
   87MOL  Cl10227794   2.730   0.960   6.607  0.4581  0.0074 -0.1333
   87MOL   C10327795   2.819   0.799   6.401  0.4876  0.1187  0.0267
   87MOL   C10427796   2.863   0.777   6.265  0.3234 -0.1920  0.7105
   87MOL   C10527797   2.883   0.898   6.185  0.0090 -0.1372  0.3925
   87MOL   C10627798   2.811   1.262   6.154  0.0967 -0.1046 -0.0977
   87MOL   H10727799   2.933   1.109   6.064  2.1779 -0.9605  0.2179
   87MOL   H10827800   2.828   1.145   6.412 -2.6724  1.6520 -3.1461
   87MOL   H10927801   2.798   0.723   6.474 -1.6445  0.0991 -0.5426
   87MOL   H11027802   2.864   0.676   6.227 -1.0001 -0.8146  2.2630
   87MOL   H11127803   2.923   0.872   6.088  0.1568 -0.0326  0.4247
   87MOL   H11227804   2.722   1.209   6.120  0.6677 -1.1193 -0.0150
   87MOL   H11327805   2.786   1.281   6.258  2.3836  2.0590  0.1053
   87MOL   C11427806   2.859   1.387   6.072  0.2939  0.5015  0.1629
   87MOL   C11527807   2.926   1.341   5.944  0.3819  0.1785  0.2008
   87MOL   C11627808   3.046   1.409   5.906  0.7533 -0.1792 -0.5052
   87MOL   C11727809   3.105   1.393   5.777  0.4482 -0.0611 -0.3630
   87MOL  Cl11827810   3.248   1.486   5.738  0.1540 -0.0446  0.4086
   87MOL   C11927811   3.051   1.296   5.690 -0.1527 -0.1351 -0.2788
   87MOL   C12027812   2.934   1.227   5.729  0.0592 -1.1007  0.7704
   87MOL   C12127813   2.869   1.252   5.850  0.7202  1.0244 -0.2267
   87MOL   C12227814   2.751   1.497   6.048 -0.5393  0.0107 -0.0745
   87MOL   H12327815   2.940   1.431   6.131  1.5697  0.0272 -1.1897
   87MOL   H12427816   3.086   1.484   5.973 -1.7188  0.5452  0.2366
   87MOL   H12527817   3.106   1.279   5.599  1.0035 -0.6673  0.5070
   87MOL   H12627818   2.892   1.167   5.649 -1.7235  0.5320  0.4506
   87MOL   H12727819   2.779   1.201   5.879  1.0871 -0.5455 -1.7889
   87MOL   H12827820   2.683   1.470   5.967 -0.6710 -1.1389  0.4115
   87MOL   H12927821   2.683   1.481   6.132 -0.5518  0.4355 -0.0042
   87MOL   C13027822   2.799   1.645   6.049 -0.0668 -0.4920  0.2616
   87MOL   C13127823   2.793   1.705   5.902  0.3706 -0.8766 -0.2022
   87MOL   C13227824   2.669   1.762   5.857  0.4521  0.0551  0.3159
   87MOL   C13327825   2.658   1.817   5.725 -0.1659  0.0056  0.2011
   87MOL  Cl13427826   2.514   1.891   5.663 -0.0107  0.0472 -0.5223
   87MOL   C13527827   2.772   1.809   5.644 -0.5486  0.3023 -0.3398
   87MOL   C13627828   2.897   1.757   5.689  0.2420 -0.2558  0.5653
   87MOL   C13727829   2.906   1.703   5.817 -0.6815  0.1779  0.1850
   87MOL   C13827830   2.718   1.724   6.162  0.8022  0.0719 -0.0551
   87MOL   H13927831   2.903   1.642   6.082 -0.4256  1.1887  1.6627
   87MOL   H14027832   2.577   1.757   5.914  0.8088 -0.3210  0.8623
   87MOL   H14127833   2.764   1.848   5.543 -0.6157 -0.6153 -0.6902
   87MOL   H14227834   2.982   1.756   5.622 -1.7979  2.9615 -2.2097
   87MOL   H14327835   2.998   1.660   5.855  0.2050  2.7506  1.0791
   87MOL   H14427836   2.728   1.833   6.164 -0.3397  0.1748  0.1296
   87MOL   H14527837   2.612   1.717   6.141  0.8723  0.3794 -0.5110
   87MOL   C14627838   2.753   1.689   6.310 -0.6570  0.6839  0.6625
   87MOL   C14727839   2.893   1.715   6.353 -0.9780 -0.5017  0.2030
   87MOL   C14827840   2.937   1.849   6.350  1.1755  0.3457  0.1650
   87MOL   C14927841   3.069   1.876   6.399  0.3065 -0.4467 -0.6920
   87MOL  Cl15027842   3.138   2.036   6.373 -0.1748 -0.2258 -0.6159
   87MOL   C15127843   3.144   1.769   6.459  0.2186  0.0624 -0.2463
   87MOL   C15227844   3.099   1.637   6.456 -0.0476 -0.5164 -0.2155
   87MOL   C15327845   2.976   1.610   6.399 -0.2204 -0.6023  0.0280
   87MOL   C15427846   2.651   1.754   6.404  0.5122  0.9304  0.2767
   87MOL   H15527847   2.740   1.582   6.324  2.2708  0.1457 -0.3180
   87MOL   H15627848   2.870   1.927   6.318  1.1810  0.9729  1.6690
   87MOL   H15727849   3.241   1.796   6.499 -0.4876  0.2506  1.4134
   87MOL   H15827850   3.155   1.559   6.504 -0.2094  0.9091  2.3861
   87MOL   H15927851   2.947   1.506   6.409 -0.7093 -0.3248  1.5417
   87MOL   H16027852   2.692   1.751   6.505 -1.8869  0.9241  1.2774
   87MOL   H16127853   2.655   1.862   6.386  1.9944  0.8256 -0.1197
   87MOL   C16227854   2.511   1.706   6.394 -0.4331  0.0935  0.8458
   87MOL   C16327855   2.492   1.554   6.397 -0.2495 -0.2376 -0.0239
   87MOL   C16427856   2.535   1.480   6.510 -0.9512 -0.3952 -0.0552
   87MOL   C16527857   2.527   1.338   6.509  0.4017  0.4476  0.1225
   87MOL  Cl16627858   2.593   1.250   6.640 -0.6166  0.2296  0.2208
   87MOL   C16727859   2.450   1.274   6.410  0.1286 -0.4120 -0.3100
   87MOL   C16827860   2.391   1.351   6.303 -0.4048 -0.3849  0.4704
   87MOL   C16927861   2.412   1.490   6.293  0.4669  0.3013 -0.0854
   87MOL   C17027862   2.431   1.778   6.504  0.1672  0.4127 -0.1918
   87MOL   H17127863   2.472   1.758   6.306  1.5045  1.2895  0.6507
   87MOL   H17227864   2.598   1.530   6.582 -1.5022  2.0769 -1.2358
   87MOL   H17327865   2.448   1.166   6.412  0.0239 -0.4255 -0.9807
   87MOL   H17427866   2.331   1.302   6.229  0.2209  1.1883 -1.1171
   87MOL   H17527867   2.379   1.549   6.210 -0.9927 -0.9376 -0.4119
   87MOL   H17627868   2.466   1.748   6.603 -0.7031  0.0777  0.0146
   87MOL   H17727869   2.444   1.886   6.498  3.4016  0.2506  2.4935
   87MOL   C17827870   2.280   1.740   6.501 -0.2690  0.2644  0.5022
   87MOL   C17927871   2.213   1.786   6.633  0.4622  0.9713  0.5404
   87MOL   C18027872   2.134   1.695   6.719 -0.0462  0.4318 -0.3992
   87MOL   C18127873   2.084   1.754   6.840  0.6550  0.7341 -0.3718
   87MOL  Cl18227874   1.984   1.660   6.941  0.3162  0.3654  0.1094
   87MOL   C18327875   2.108   1.886   6.867 -0.2540  0.2431 -0.4494
   87MOL   C18427876   2.183   1.975   6.785  0.1118  0.3014 -0.2007
   87MOL   C18527877   2.232   1.919   6.666 -0.5072  0.2640 -0.5526
   87MOL   C18627878   2.200   1.784   6.373 -0.6221 -0.5738 -0.2409
   87MOL   H18727879   2.275   1.632   6.488  0.5149  0.2726  0.1141
   87MOL   H18827880   2.108   1.592   6.700 -0.8235  0.3201  1.1663
   87MOL   H18927881   2.073   1.929   6.959 -0.0264 -1.4560  0.4429
   87MOL   H19027882   2.208   2.077   6.809  1.5116  0.1339 -0.8860
   87MOL   H19127883   2.284   1.981   6.594  1.1876 -1.7617 -1.1378
   87MOL   H19227884   2.264   1.863   6.334  0.4894  0.1336  2.8728
   87MOL   H19327885   2.211   1.705   6.299 -0.5448 -1.1571  0.3903
   87MOL   C19427886   2.057   1.843   6.385 -0.9151 -0.0197  0.3575
   87MOL   C19527887   2.028   1.921   6.262 -0.6085  0.5193  0.0418
   87MOL   C19627888   2.017   2.064   6.265  0.4704 -0.0473 -0.0160
   87MOL   C19727889   1.995   2.138   6.152  0.3368 -0.3409  0.1222
   87MOL  Cl19827890   1.985   2.312   6.166  0.0233  0.0914 -0.1664
   87MOL   C19927891   1.978   2.071   6.031 -0.5479  0.1180  0.0194
   87MOL   C20027892   1.989   1.930   6.021  0.4271  0.1129 -0.2023
   87MOL   C20127893   2.016   1.856   6.137  0.4725 -0.0318  0.9206
   87MOL   C20227894   1.950   1.730   6.417  0.3297  0.3106 -0.1033
   87MOL   H20327895   2.058   1.912   6.470 -1.4840 -0.4258  0.6983
   87MOL   H20427896   2.043   2.114   6.357 -0.9573  0.3829  0.1703
   87MOL   H20527897   1.961   2.126   5.940  0.7885  1.2548  0.4391
   87MOL   H20627898   1.967   1.876   5.930 -1.4799 -1.9054  1.4273
   87MOL   H20727899   2.014   1.749   6.122 -1.4436  0.3163 -1.5658
   87MOL   H20827900   1.949   1.669   6.328  1.7924  0.9928 -0.6106
   87MOL   H20927901   1.971   1.669   6.505 -0.7082  0.2570  0.1118
   87MOL   C21027902   1.812   1.795   6.444 -1.0726  0.0681  0.0357
   87MOL   C21127903   1.708   1.693   6.415  0.1865  0.0679  0.1674
   87MOL   C21227904   1.679   1.667   6.276 -0.1101  0.3977  0.4168
   87MOL   C21327905   1.588   1.566   6.245  0.0672 -0.0488 -0.1108
   87MOL  Cl21427906   1.552   1.532   6.080 -0.0748 -0.3788 -0.3019
   87MOL   C21527907   1.528   1.493   6.354 -0.1114  0.5641 -0.3712
   87MOL   C21627908   1.548   1.529   6.489  0.0812  0.1715  0.2517
   87MOL   C21727909   1.640   1.627   6.522  0.2416 -0.0097  0.1935
   87MOL   C21827910   1.815   1.860   6.588  0.7352 -0.3801 -0.5892
   87MOL   H21927911   1.798   1.881   6.380  0.8229  0.2990 -0.0908
   87MOL   H22027912   1.733   1.724   6.201  0.3368 -1.2861 -0.5705
   87MOL   H22127913   1.451   1.419   6.337  1.1119 -0.6808 -0.6177
   87MOL   H22227914   1.498   1.482   6.573  2.3754 -1.2773  0.8531
   87MOL   H22327915   1.657   1.642   6.628  0.8065 -1.7977  0.3680
   87MOL   H22427916   1.820   1.783   6.665 -1.1276  1.0411  0.9841
   87MOL   H22527917   1.900   1.923   6.612  0.3500 -0.1842  0.2524
   87MOL   C22627918   1.704   1.967   6.611  0.1155 -0.0153  0.1002
   87MOL   C22727919   1.703   2.001   6.764 -1.0088  0.5104  0.6499
   87MOL   C22827920   1.806   2.090   6.806 -0.4328 -0.2258  0.5169
   87MOL   C22927921   1.815   2.127   6.940 -0.6361 -0.3340 -0.6742
   87MOL  Cl23027922   1.925   2.242   7.007  0.1961 -0.2425  0.2267
   87MOL   C23127923   1.727   2.074   7.033  0.1123 -0.0094  0.4716
   87MOL   C23227924   1.619   1.991   6.990 -0.0017  0.1310  0.4983
   87MOL   C23327925   1.605   1.959   6.853  0.9069  0.0978 -0.2106
   87MOL   C23427926   1.699   2.089   6.518  0.6440 -0.5021 -0.0992
   87MOL   H23527927   1.607   1.920   6.592 -0.6494  1.6300 -0.1219
   87MOL   H23627928   1.875   2.126   6.732 -0.8575 -0.6789 -0.1081
   87MOL   H23727929   1.733   2.109   7.135 -2.0522  6.0753 -1.3287
   87MOL   H23827930   1.546   1.948   7.058 -2.1488 -0.0432 -1.8672
   87MOL   H23927931   1.524   1.896   6.820 -0.0679  1.5577 -0.6569
   87MOL   H24027932   1.793   2.144   6.525 -0.8188  2.4054 -2.0946
   87MOL   H24127933   1.692   2.056   6.414 -0.4252 -0.0204 -0.1930
   87MOL   C24227934   1.600   2.200   6.562 -0.4836  0.1306 -0.1926
   87MOL   C24327935   1.656   2.337   6.561 -0.5090 -0.2532 -0.9664
   87MOL   C24427936   1.741   2.387   6.463 -0.8945 -0.2698  0.6328
   87MOL   C24527937   1.789   2.519   6.467  0.2082  0.3818 -0.9027
   87MOL  Cl24627938   1.908   2.576   6.351 -0.0667 -0.1090 -0.6160
   87MOL   C24727939   1.755   2.605   6.581  0.5237  0.0115  0.0660
   87MOL   C24827940   1.672   2.549   6.687  0.1943  0.2896 -0.9508
   87MOL   C24927941   1.621   2.420   6.668 -0.4745  0.3248  0.1633
   87MOL   C25027942   1.471   2.198   6.467  0.6378  0.3396  0.4214
   87MOL   H25127943   1.569   2.179   6.664  0.6457 -0.1883  0.0945
   87MOL   H25227944   1.774   2.320   6.385  0.6953  1.5756 -0.2999
   87MOL   H25327945   1.790   2.707   6.584  2.2952 -0.5967  0.9308
   87MOL   H25427946   1.651   2.600   6.781  1.0012  0.9550 -1.1299
   87MOL   H25527947   1.552   2.379   6.741  0.2050  0.1212  0.6932
   87MOL   H25627948   1.391   2.268   6.495 -1.7198 -1.6905 -1.0698
   87MOL   H25727949   1.512   2.236   6.374 -0.4323  1.7879  0.5263
   87MOL   C25827950   1.403   2.059   6.457  0.3197  0.1998  0.1800
   87MOL   C25927951   1.349   2.008   6.589 -0.1853 -0.0513 -0.6179
   87MOL   C26027952   1.333   1.873   6.620  0.2228  0.3903  0.5339
   87MOL   C26127953   1.235   1.834   6.718  0.6643 -0.6820 -0.4960
   87MOL  Cl26227954   1.184   1.667   6.741  0.1250  0.0216 -0.1468
   87MOL   C26327955   1.178   1.930   6.801 -0.1487 -0.2150 -0.4613
   87MOL   C26427956   1.220   2.063   6.788  0.0825  0.1445  0.1311
   87MOL   C26527957   1.290   2.101   6.678  0.3000  0.9524 -0.5575
   87MOL   C26627958   1.299   2.043   6.349 -0.2001  0.0547  0.2111
   87MOL   H26727959   1.485   1.992   6.432  0.6419  0.9335 -0.7738
   87MOL   H26827960   1.370   1.802   6.547  1.1655  1.5690 -0.1451
   87MOL   H26927961   1.116   1.891   6.880 -0.5792 -0.5706 -0.9713
   87MOL   H27027962   1.164   2.135   6.847 -0.8160 -0.2596 -0.2153
   87MOL   H27127963   1.276   2.206   6.656 -0.9704  0.3355 -2.8158
   87MOL   H27227964   1.345   2.085   6.260 -2.8206  3.3956  0.3183
   87MOL   H27327965   1.284   1.939   6.321 -1.7500  0.3183 -0.0096
   87MOL   C27427966   1.158   2.105   6.360  0.2367  0.1230 -0.0326
   87MOL   C27527967   1.128   2.179   6.236  0.1049  0.5404  0.4218
   87MOL   C27627968   1.169   2.315   6.219  0.0517  0.5869 -0.5633
   87MOL   C27727969   1.159   2.381   6.095  0.1699 -1.1734 -0.5931
   87MOL  Cl27827970   1.234   2.532   6.077  0.3058  0.2447  0.3386
   87MOL   C27927971   1.085   2.324   5.988 -0.3770  0.1696 -0.0641
   87MOL   C28027972   1.033   2.196   6.005  0.3788 -0.0466 -0.3240
   87MOL   C28127973   1.054   2.125   6.128 -0.0411 -0.5656  0.0805
   87MOL   C28227974   1.058   2.000   6.415  0.3592 -0.1815  0.7035
   87MOL   H28327975   1.166   2.179   6.439  0.9706  0.4787 -0.4372
   87MOL   H28427976   1.233   2.346   6.300 -1.3576 -1.3303  1.3446
   87MOL   H28527977   1.083   2.377   5.894  0.8103  2.7160  1.2811
   87MOL   H28627978   0.977   2.142   5.930 -1.2116 -0.2531  1.0002
   87MOL   H28727979   1.013   2.026   6.147 -1.6661  0.4443  1.9921
   87MOL   H28827980   1.044   1.924   6.338 -2.1740  1.9380 -0.9928
   87MOL   H28927981   1.091   1.943   6.502  1.2861  0.1092  0.5438
   87MOL   C29027982   0.915   2.032   6.455  0.0255 -0.0406 -0.2495
   87MOL   C29127983   0.833   1.901   6.471  0.5860 -0.2675 -1.2428
   87MOL   C29227984   0.841   1.823   6.591 -0.2546  0.0500  0.7083
   87MOL   C29327985   0.787   1.691   6.592  0.5600 -0.6883 -0.0745
   87MOL  Cl29427986   0.823   1.596   6.732  0.1365 -0.1830  0.1843
   87MOL   C29527987   0.716   1.643   6.480 -0.8971  0.1889 -0.4324
   87MOL   C29627988   0.698   1.728   6.369 -0.2798 -1.1375 -0.1078
   87MOL   C29727989   0.761   1.857   6.359 -1.1073 -0.1292  0.5044
   87MOL   C29827990   0.891   2.136   6.577  0.5719 -0.2567 -0.1677
   87MOL   H29927991   0.880   2.078   6.363  0.0269  2.1552  0.8117
   87MOL   H30027992   0.903   1.832   6.679 -0.1199 -1.8466  0.8277
   87MOL   H30127993   0.667   1.547   6.470  0.4477 -0.7066  1.4333
   87MOL   H30227994   0.647   1.696   6.280 -1.2239  0.5767 -0.2096
   87MOL   H30327995   0.767   1.905   6.263  1.2273  0.1598  0.7524
   87MOL   H30427996   0.888   2.078   6.669  0.0898  1.1117  0.6871
   87MOL   H30527997   0.971   2.209   6.568  1.3201 -1.0947 -0.3308
   87MOL   C30627998   0.762   2.220   6.567  0.6598  0.5294  0.0251
   87MOL   C30727999   0.721   2.282   6.698 -0.4000 -0.0613  0.2228
   87MOL   C30828000   0.817   2.358   6.770 -0.3543  0.1518 -0.0176
   87MOL   C30928001   0.790   2.410   6.896  0.4132 -0.5649 -0.3690
   87MOL  Cl31028002   0.917   2.483   6.991 -0.1662 -0.2861 -0.0037
   87MOL   C31128003   0.658   2.402   6.948 -0.4953 -0.6792  0.4289
   87MOL   C31228004   0.550   2.348   6.864  0.6650  0.3762  0.4860
   87MOL   C31328005   0.588   2.279   6.745 -0.4029  0.4323  0.0354
   87MOL   C31428006   0.764   2.318   6.449  0.1665 -0.0133 -0.3949
   87MOL   H31528007   0.683   2.145   6.557  0.3426  0.5497  2.2023
   87MOL   H31628008   0.916   2.376   6.730 -0.8482 -0.3443 -1.4975
   87MOL   H31728009   0.638   2.446   7.045  1.5304 -0.2598  0.6694
   87MOL   H31828010   0.448   2.364   6.896  0.5053  0.1088  0.1073
   87MOL   H31928011   0.508   2.238   6.685  0.1339  0.2650 -0.5715
   87MOL   H32028012   0.794   2.273   6.355  0.6659  2.4527 -1.4459
   87MOL   H32128013   0.668   2.366   6.429  0.5131  1.5180  1.4215
   87MOL   H32228014   0.842   2.394   6.462  0.1720 -0.5378  3.3214
   88MOL     C128015   1.152   1.950   2.276  0.3668 -0.6779  0.1609
   88MOL     C228016   1.100   1.965   2.131 -0.7701 -0.0847  0.4170
   88MOL     C328017   1.046   2.085   2.093 -0.1978 -0.1164 -0.0597
   88MOL     C428018   0.996   2.110   1.967  0.7453  0.0929 -0.1095
   88MOL    Cl528019   0.929   2.268   1.935 -0.2163 -0.0794  0.3599
   88MOL     C628020   0.995   2.006   1.873 -0.7422  1.0157 -0.0263
   88MOL     C728021   1.050   1.882   1.907 -0.5174 -0.0528  0.1418
   88MOL     C828022   1.110   1.857   2.033  0.1530 -0.4355  0.4819
   88MOL     C928023   1.040   1.946   2.379  0.5568  0.4204  0.1521
   88MOL    H1028024   1.227   2.025   2.301 -1.1521  1.0233 -0.2882
   88MOL    H1128025   1.030   2.156   2.173 -0.1588  0.7630 -0.8202
   88MOL    H1228026   0.962   2.021   1.772  3.7845 -0.1788 -1.8232
   88MOL    H1328027   1.052   1.806   1.830 -0.5567  1.5628 -1.4802
   88MOL    H1428028   1.167   1.768   2.053 -0.1087 -0.9473 -0.9849
   88MOL    H1528029   1.092   1.928   2.473 -1.8210  1.8450  1.7809
   88MOL    H1628030   0.996   2.044   2.398 -2.9824 -1.0042 -0.2940
   88MOL    H1728031   1.216   1.863   2.281  0.9946 -0.2381 -0.2082
   88MOL    C1828032   0.935   1.839   2.358 -0.0548 -0.1776  0.1574
   88MOL    C1928033   0.993   1.698   2.341 -0.2068  0.1070 -0.1391
   88MOL    C2028034   1.104   1.644   2.414 -0.3101  0.1507  0.0205
   88MOL    C2128035   1.150   1.514   2.388 -0.1351 -0.3920 -0.2495
   88MOL   Cl2228036   1.277   1.448   2.489  0.4021 -0.2779  0.2013
   88MOL    C2328037   1.090   1.428   2.290  1.0646  0.0638  0.2234
   88MOL    C2428038   0.994   1.487   2.204  0.3500 -0.6160  0.5199
   88MOL    C2528039   0.948   1.622   2.231  0.4913 -0.1166 -0.0216
   88MOL    C2628040   0.826   1.831   2.466 -0.0493 -0.2557  0.1957
   88MOL    H2728041   0.896   1.872   2.262  1.0109  0.1126 -0.1927
   88MOL    H2828042   1.144   1.701   2.496 -1.4286  3.8015 -1.8763
   88MOL    H2928043   1.123   1.327   2.272 -1.5361 -0.3537 -2.5251
   88MOL    H3028044   0.969   1.440   2.111  0.1569 -2.4333  1.4758
   88MOL    H3128045   0.878   1.654   2.155 -0.8480  0.1072  1.2872
   88MOL    H3228046   0.855   1.754   2.538 -0.9364 -0.7086  0.0733
   88MOL    H3328047   0.836   1.923   2.522 -1.2140  0.6675 -1.0998
   88MOL    C3428048   0.677   1.829   2.421  0.0236  0.2483 -0.0266
   88MOL    C3528049   0.645   1.691   2.358  0.2576 -0.1404  0.3294
   88MOL    C3628050   0.617   1.675   2.215  0.2310 -0.3371  0.0931
   88MOL    C3728051   0.588   1.549   2.164 -0.5378  0.1250 -0.3681
   88MOL   Cl3828052   0.563   1.516   1.997  0.1249 -0.2586  0.2017
   88MOL    C3928053   0.576   1.438   2.250  0.4358 -0.3560 -0.5285
   88MOL    C4028054   0.593   1.452   2.389  0.2701 -0.0401  0.0124
   88MOL    C4128055   0.628   1.577   2.441  0.0970 -0.2259  0.1619
   88MOL    C4228056   0.576   1.869   2.538 -0.1276  0.2936  0.4018
   88MOL    H4328057   0.675   1.900   2.339 -1.3629  1.4616  1.0331
   88MOL    H4428058   0.613   1.759   2.147 -1.2459  1.2905  2.1145
   88MOL    H4528059   0.557   1.341   2.208  1.7472 -0.4592 -0.8985
   88MOL    H4628060   0.595   1.366   2.454 -1.8545 -1.2794 -1.5052
   88MOL    H4728061   0.665   1.585   2.543  1.0897  0.8260 -0.2658
   88MOL    H4828062   0.478   1.852   2.494  1.2379 -1.3363 -2.1367
   88MOL    H4928063   0.587   1.800   2.622 -2.3336 -0.3850  0.1778
   88MOL    C5028064   0.587   2.014   2.597 -0.4384 -0.8163  0.5566
   88MOL    C5128065   0.611   2.120   2.489 -0.8595  0.3124  0.5731
   88MOL    C5228066   0.522   2.137   2.380 -0.1833 -0.0491  0.6807
   88MOL    C5328067   0.549   2.228   2.276  0.1147 -0.1076 -0.1790
   88MOL   Cl5428068   0.445   2.264   2.137 -0.0508  0.4934  0.2474
   88MOL    C5528069   0.655   2.321   2.302 -0.4315 -0.3923 -1.0690
   88MOL    C5628070   0.739   2.317   2.419  1.1598  0.0144 -0.0170
   88MOL    C5728071   0.714   2.218   2.513  0.1906  0.4351 -0.4423
   88MOL    C5828072   0.464   2.044   2.677 -0.4810  0.1759  0.6316
   88MOL    H5928073   0.673   2.011   2.664 -1.2552  0.9875  1.7259
   88MOL    H6028074   0.428   2.083   2.372 -0.6768  0.7180  1.2313
   88MOL    H6128075   0.673   2.409   2.242 -0.2707  0.6851  0.5448
   88MOL    H6228076   0.815   2.392   2.435  0.1024  1.7404 -2.5773
   88MOL    H6328077   0.774   2.217   2.602 -1.3982  2.8690  0.7306
   88MOL    H6428078   0.441   2.150   2.670  1.9392  0.7026  0.2844
   88MOL    H6528079   0.375   1.998   2.633  0.5506 -2.6943  1.4235
   88MOL    C6628080   0.479   2.007   2.828 -0.2001 -0.2317 -0.0338
   88MOL    C6728081   0.547   2.115   2.912 -0.1093 -0.1324  0.4096
   88MOL    C6828082   0.672   2.086   2.976 -0.2185  0.5254  0.5724
   88MOL    C6928083   0.738   2.175   3.062  0.5234  0.4840  0.6406
   88MOL   Cl7028084   0.887   2.147   3.137  0.1395  0.1685 -0.1367
   88MOL    C7128085   0.679   2.303   3.078 -0.1889 -0.1473 -0.0501
   88MOL    C7228086   0.557   2.337   3.017 -0.3934  0.1648  0.4223
   88MOL    C7328087   0.491   2.243   2.932 -0.4335 -0.2171  0.1136
   88MOL    C7428088   0.344   1.966   2.894  0.6015 -0.2163  0.2756
   88MOL    H7528089   0.548   1.923   2.832  2.2364  1.6600 -0.4826
   88MOL    H7628090   0.724   1.992   2.970 -0.7527  0.2515  0.1728
   88MOL    H7728091   0.735   2.373   3.139  0.9301  1.3752 -2.7154
   88MOL    H7828092   0.509   2.433   3.025 -0.8824 -0.1393  1.1300
   88MOL    H7928093   0.396   2.267   2.885 -0.6328  0.8457  1.0344
   88MOL    H8028094   0.277   2.050   2.874  0.6733 -0.2853 -0.2855
   88MOL    H8128095   0.299   1.880   2.846  1.2362 -0.3945 -0.0129
   88MOL    C8228096   0.336   1.950   3.050 -0.3690  0.1550 -0.2144
   88MOL    C8328097   0.196   1.962   3.098  0.1398  0.0670 -0.4138
   88MOL    C8428098   0.154   2.069   3.177  0.2963 -0.5896 -0.9402
   88MOL    C8528099   0.027   2.073   3.235  0.2778 -0.5887 -0.1120
   88MOL   Cl8628100   8.414   2.209   3.338 -0.2723 -0.1843  0.1938
   88MOL    C8728101   8.367   1.973   3.207 -0.0025 -0.1552 -0.6789
   88MOL    C8828102   8.403   1.864   3.122  0.3266 -1.0934  0.5710
   88MOL    C8928103   0.101   1.860   3.069 -0.6502 -0.3803 -0.0405
   88MOL    C9028104   0.394   1.820   3.096 -0.4932 -0.6012 -0.2953
   88MOL    H9128105   0.393   2.028   3.099 -1.9107  1.5633 -0.5820
   88MOL    H9228106   0.223   2.149   3.197 -0.6428  0.4217 -1.6556
   88MOL    H9328107   8.265   1.981   3.243 -0.2278  0.2657 -1.4097
   88MOL    H9428108   8.328   1.790   3.099 -2.5978  2.1980 -1.0438
   88MOL    H9528109   0.124   1.779   3.002 -0.3885 -0.1765 -0.1938
   88MOL    H9628110   0.322   1.741   3.071 -1.7509  0.6270 -0.5997
   88MOL    H9728111   0.485   1.799   3.038 -1.6853 -0.4909 -2.2531
   88MOL    C9828112   0.438   1.813   3.242 -0.6227  0.5915 -0.7163
   88MOL    C9928113   0.468   1.668   3.274 -0.3487  0.1785  0.0220
   88MOL   C10028114   0.372   1.599   3.357 -0.1738 -0.1343 -0.7797
   88MOL   C10128115   0.397   1.466   3.392  1.3068 -0.5339  0.3210
   88MOL  Cl10228116   0.278   1.389   3.488 -0.1113 -0.0264  0.2620
   88MOL   C10328117   0.518   1.402   3.349  0.4716 -0.7215 -0.0077
   88MOL   C10428118   0.604   1.473   3.262  0.7997 -0.1044 -0.2030
   88MOL   C10528119   0.579   1.607   3.223 -0.0486  0.0941  0.2399
   88MOL   C10628120   0.559   1.904   3.270  0.4171 -0.6109  0.1441
   88MOL   H10728121   0.357   1.856   3.301  0.0244 -0.0973  0.7114
   88MOL   H10828122   0.282   1.652   3.384 -0.0708 -2.3725  4.6277
   88MOL   H10928123   0.545   1.300   3.371 -1.4397 -1.9018 -2.9309
   88MOL   H11028124   0.691   1.418   3.229 -0.0424 -1.8699  0.5159
   88MOL   H11128125   0.645   1.655   3.153 -0.7750  3.4846  1.7702
   88MOL   H11228126   0.651   1.877   3.219  1.6959  2.3008  0.7804
   88MOL   H11328127   0.525   2.004   3.243 -0.8994 -0.5690  1.8443
   88MOL   C11428128   0.597   1.930   3.424  0.4445  0.5583  0.0459
   88MOL   C11528129   0.468   1.971   3.490  0.3314 -0.6712 -0.2370
   88MOL   C11628130   0.380   1.878   3.555 -1.0035 -0.3438 -0.3049
   88MOL   C11728131   0.271   1.918   3.631 -0.6632 -0.9181  0.5786
   88MOL  Cl11828132   0.176   1.796   3.710  0.0712 -0.3729 -0.0647
   88MOL   C11928133   0.237   2.054   3.633 -0.1588  0.3631  0.7716
   88MOL   C12028134   0.320   2.150   3.567 -0.6672  0.5790  0.7530
   88MOL   C12128135   0.438   2.108   3.492 -0.0864  0.6006 -0.0089
   88MOL   C12228136   0.671   1.808   3.492 -0.0771 -0.2590  0.3496
   88MOL   H12328137   0.672   2.008   3.418  0.3046  0.9007  2.5455
   88MOL   H12428138   0.406   1.773   3.553  1.8430  0.2171  2.7009
   88MOL   H12528139   0.151   2.079   3.694 -0.0012 -0.4936  1.3469
   88MOL   H12628140   0.297   2.253   3.585  0.3135  0.5470  2.2419
   88MOL   H12728141   0.500   2.176   3.436 -1.0139  0.9401 -0.6408
   88MOL   H12828142   0.608   1.721   3.510 -0.2652 -0.5840 -1.7349
   88MOL   H12928143   0.734   1.773   3.409 -0.3921 -0.7069  0.2948
   88MOL   C13028144   0.758   1.835   3.619 -0.1926 -0.7233 -0.0934
   88MOL   C13128145   0.865   1.943   3.605  1.1984 -0.4087 -0.0558
   88MOL   C13228146   0.960   1.924   3.503  0.1632  0.1402 -0.7056
   88MOL   C13328147   1.044   2.029   3.466  0.1589  0.2639 -0.2324
   88MOL  Cl13428148   1.152   2.011   3.333 -0.2622  0.1203 -0.1893
   88MOL   C13528149   1.044   2.148   3.535 -0.3275  0.5594 -0.0448
   88MOL   C13628150   0.953   2.168   3.639 -0.1690  0.0687  0.1570
   88MOL   C13728151   0.864   2.066   3.677  0.0107  0.5586 -0.8601
   88MOL   C13828152   0.678   1.838   3.745  0.1529  0.3609 -0.9763
   88MOL   H13928153   0.817   1.743   3.617 -1.0169 -1.2576 -1.9861
   88MOL   H14028154   0.959   1.828   3.454 -1.9857 -0.6469  0.7807
   88MOL   H14128155   1.104   2.233   3.507  1.7963 -0.7405  0.4677
   88MOL   H14228156   0.938   2.266   3.682  1.0937  0.1418  0.4253
   88MOL   H14328157   0.781   2.092   3.741 -1.3003 -2.9621 -1.0365
   88MOL   H14428158   0.760   1.871   3.810 -2.1379 -0.4125  2.4441
   88MOL   H14528159   0.603   1.917   3.740  2.5133  2.9788  2.2519
   88MOL   C14628160   0.618   1.707   3.797  0.2850 -0.6248 -0.2803
   88MOL   C14728161   0.715   1.586   3.807 -0.3123 -0.6877 -0.2482
   88MOL   C14828162   0.676   1.460   3.755 -0.1363  0.4466 -0.1660
   88MOL   C14928163   0.764   1.346   3.765  0.9766  0.3499 -0.8953
   88MOL  Cl15028164   0.713   1.195   3.710 -0.2856 -0.1217 -0.0724
   88MOL   C15128165   0.892   1.357   3.823  0.7755  0.2932 -0.3059
   88MOL   C15228166   0.936   1.487   3.863 -0.3451  0.3636  0.0605
   88MOL   C15328167   0.846   1.597   3.863 -0.0779  0.2074  0.7314
   88MOL   C15428168   0.550   1.725   3.934  0.5988 -0.4278  0.6544
   88MOL   H15528169   0.540   1.691   3.721 -1.4730 -0.2259  1.4129
   88MOL   H15628170   0.573   1.447   3.723 -0.8024  3.0459  0.8188
   88MOL   H15728171   0.961   1.275   3.813  0.3228  0.2094 -3.0182
   88MOL   H15828172   1.039   1.505   3.891 -0.2080 -0.9136  0.3862
   88MOL   H15928173   0.880   1.683   3.919  0.6139  0.8632 -0.6667
   88MOL   H16028174   0.625   1.774   3.996  0.7379 -0.1284  0.2576
   88MOL   H16128175   0.476   1.805   3.930  1.0154 -0.0490  0.4877
   88MOL   C16228176   0.488   1.614   4.011 -0.3267  0.0057 -0.4810
   88MOL   C16328177   0.480   1.659   4.157 -0.5417 -0.3455 -0.2983
   88MOL   C16428178   0.552   1.588   4.251  0.5936 -0.0498  0.5144
   88MOL   C16528179   0.550   1.618   4.389 -0.1624 -0.0304  0.1469
   88MOL  Cl16628180   0.621   1.499   4.492 -0.3544 -0.1938 -0.0414
   88MOL   C16728181   0.475   1.732   4.433  0.8276  0.1159  0.4579
   88MOL   C16828182   0.408   1.812   4.340  0.4981 -0.0827  0.0321
   88MOL   C16928183   0.401   1.773   4.202 -0.2758 -0.0448  0.1853
   88MOL   C17028184   0.354   1.564   3.949  0.0608  0.4216  0.5902
   88MOL   H17128185   0.565   1.538   4.001 -1.1577 -0.9791  0.5025
   88MOL   H17228186   0.614   1.505   4.217  0.2566  0.2654 -0.9060
   88MOL   H17328187   0.470   1.754   4.539 -0.7364  1.9348  0.0303
   88MOL   H17428188   0.350   1.897   4.372  1.5928  0.0917  1.5917
   88MOL   H17528189   0.332   1.825   4.137  1.5271 -0.2398 -1.9267
   88MOL   H17628190   0.277   1.641   3.937 -0.2747  0.0818  0.5493
   88MOL   H17728191   0.380   1.538   3.846 -1.5562  1.6474 -0.1514
   88MOL   C17828192   0.287   1.444   4.027 -0.1746 -0.0474 -0.7057
   88MOL   C17928193   0.148   1.407   3.973  0.0091  0.2106 -0.2564
   88MOL   C18028194   0.109   1.424   3.842  0.0521 -0.0864  0.6399
   88MOL   C18128195   8.415   1.391   3.802 -0.6619 -0.0121 -0.2382
   88MOL  Cl18228196   8.367   1.428   3.643 -0.0989 -0.1224  0.4392
   88MOL   C18328197   8.324   1.331   3.893 -0.2730 -0.3890 -0.4106
   88MOL   C18428198   8.366   1.326   4.035 -0.0567  0.4066 -0.1665
   88MOL   C18528199   0.057   1.360   4.070  0.0290 -0.4809 -0.8264
   88MOL   C18628200   0.371   1.321   4.024 -0.4980 -0.6928  0.3237
   88MOL   H18728201   0.278   1.480   4.130  1.5609  0.4432 -0.7216
   88MOL   H18828202   0.183   1.464   3.775 -1.2949  0.7547 -0.3768
   88MOL   H18928203   8.220   1.312   3.875 -0.9926  2.0448  1.0469
   88MOL   H19028204   8.296   1.305   4.115 -0.3383 -1.8689 -0.9723
   88MOL   H19128205   0.079   1.359   4.176 -1.4280  3.4106 -0.4314
   88MOL   H19228206   0.315   1.240   3.978 -0.7081  0.0720 -0.8107
   88MOL   H19328207   0.447   1.347   3.950  0.8552 -1.7801  1.3197
   88MOL   C19428208   0.443   1.268   4.151 -0.1937 -0.5441 -0.8096
   88MOL   C19528209   0.339   1.237   4.261  0.2591  0.3175  0.2223
   88MOL   C19628210   0.333   1.306   4.385 -0.4409 -0.1482  0.9047
   88MOL   C19728211   0.232   1.278   4.481 -0.0916  0.0374 -0.0055
   88MOL  Cl19828212   0.237   1.368   4.630  0.3375 -0.1634 -0.0584
   88MOL   C19928213   0.129   1.180   4.462 -0.5749  0.0628  0.0770
   88MOL   C20028214   0.139   1.108   4.340  0.1075 -0.0713  0.1686
   88MOL   C20128215   0.238   1.136   4.244 -0.3726 -0.8007  0.4328
   88MOL   C20228216   0.519   1.137   4.128 -0.2548 -0.0919 -0.5822
   88MOL   H20328217   0.507   1.352   4.177  1.1726 -0.9928 -2.5952
   88MOL   H20428218   0.414   1.370   4.415  0.3201 -0.7172  0.0873
   88MOL   H20528219   0.052   1.163   4.536  0.0860 -1.5485  0.4117
   88MOL   H20628220   0.057   1.041   4.319  0.6905 -0.9670  0.7317
   88MOL   H20728221   0.228   1.079   4.153  3.1464 -1.1719  0.1989
   88MOL   H20828222   0.442   1.066   4.098  0.4974 -1.4557  0.5743
   88MOL   H20928223   0.572   1.153   4.034 -0.8731 -3.0516 -1.4963
   88MOL   C21028224   0.614   1.089   4.235  0.7228  0.1808  0.1872
   88MOL   C21128225   0.661   0.953   4.186  0.2026 -0.9472 -0.6958
   88MOL   C21228226   0.728   0.943   4.065  0.0068  0.5353  0.0597
   88MOL   C21328227   0.753   0.814   4.004 -0.1218  0.2266 -0.1500
   88MOL  Cl21428228   0.855   0.815   3.863 -0.1113 -0.1249  0.3135
   88MOL   C21528229   0.718   0.692   4.066 -0.9283  0.0094 -1.0436
   88MOL   C21628230   0.646   0.705   4.189 -0.2623  0.3403  0.5594
   88MOL   C21728231   0.615   0.835   4.242  0.5448 -0.9658  0.1135
   88MOL   C21828232   0.731   1.192   4.265  0.1652  0.6264  0.7359
   88MOL   H21928233   0.563   1.068   4.329 -0.5042  2.7860  0.1368
   88MOL   H22028234   0.761   1.035   4.021  0.4977 -0.0202 -0.7358
   88MOL   H22128235   0.750   0.600   4.019  1.1952  0.7496 -1.1242
   88MOL   H22228236   0.626   0.614   4.243 -1.7670  0.3055 -0.0419
   88MOL   H22328237   0.555   0.836   4.331  0.3451 -1.6295 -0.0086
   88MOL   H22428238   0.778   1.208   4.168  1.5194  0.3592  1.3285
   88MOL   H22528239   0.687   1.281   4.309  0.2572  0.5851  0.9105
   88MOL   C22628240   0.852   1.145   4.357 -0.8270 -0.4408  0.2668
   88MOL   C22728241   0.988   1.176   4.292 -0.6690  0.0910  0.4139
   88MOL   C22828242   1.065   1.286   4.334 -0.0005  0.2756  0.3825
   88MOL   C22928243   1.189   1.312   4.268 -0.2615  0.3580  0.0214
   88MOL  Cl23028244   1.286   1.445   4.329 -0.0509  0.1186 -0.3309
   88MOL   C23128245   1.242   1.213   4.180 -0.1096  0.1100 -0.8135
   88MOL   C23228246   1.165   1.107   4.133 -0.3988  0.8716 -0.0615
   88MOL   C23328247   1.038   1.088   4.193  0.3920  0.6143 -0.0542
   88MOL   C23428248   0.826   1.191   4.504 -0.0953  0.2571 -0.1719
   88MOL   H23528249   0.847   1.036   4.355 -2.6044 -0.3930  0.5705
   88MOL   H23628250   1.025   1.355   4.406 -0.9380  0.2177 -0.0783
   88MOL   H23728251   1.338   1.229   4.132  0.5168  0.4601  0.5227
   88MOL   H23828252   1.222   1.045   4.066 -1.2258 -0.9873  0.9377
   88MOL   H23928253   0.974   1.007   4.161 -0.6631  1.1777  0.6154
   88MOL   H24028254   0.837   1.300   4.510 -0.7957  0.2593  1.2581
   88MOL   H24128255   0.722   1.189   4.537 -0.4587  0.0993 -1.3048
   88MOL   C24228256   0.907   1.114   4.613  0.2667  0.0079  0.2356
   88MOL   C24328257   0.945   1.200   4.733  0.4783  0.1795 -0.4245
   88MOL   C24428258   0.843   1.273   4.791 -0.4907 -0.4075  0.4862
   88MOL   C24528259   0.878   1.356   4.898 -0.0912 -0.0857  0.0821
   88MOL  Cl24628260   0.751   1.435   4.987  0.1169 -0.3706  0.2189
   88MOL   C24728261   1.011   1.374   4.942  0.0311  0.0677  0.5510
   88MOL   C24828262   1.112   1.291   4.878  0.6480 -0.8532 -0.6392
   88MOL   C24928263   1.082   1.209   4.772  0.2045 -0.2627  0.1927
   88MOL   C25028264   0.832   0.984   4.648  0.5043  0.0427 -0.3094
   88MOL   H25128265   0.994   1.078   4.558 -1.9532 -2.3072 -1.9137
   88MOL   H25228266   0.741   1.257   4.760 -0.2825  1.9222 -1.5374
   88MOL   H25328267   1.034   1.440   5.024  0.2122  0.0637  0.5054
   88MOL   H25428268   1.212   1.302   4.917  0.7961 -1.0854 -0.9518
   88MOL   H25528269   1.164   1.169   4.715  0.8458  2.5568 -0.9403
   88MOL   H25628270   0.736   1.009   4.693 -0.0879  0.5930 -1.8729
   88MOL   H25728271   0.813   0.928   4.557 -0.1735  0.7531 -0.6084
   88MOL   C25828272   0.908   0.884   4.739 -0.1148 -0.3851 -0.0955
   88MOL   C25928273   0.806   0.793   4.799  0.4181 -0.0423 -0.1094
   88MOL   C26028274   0.750   0.687   4.722 -0.2812 -0.3995 -0.9682
   88MOL   C26128275   0.654   0.599   4.773 -0.8602 -0.0463  0.2244
   88MOL  Cl26228276   0.570   0.492   4.671 -0.0957  0.2676 -0.2415
   88MOL   C26328277   0.604   0.614   4.900 -0.1448 -0.5545 -0.2301
   88MOL   C26428278   0.666   0.712   4.987 -0.3402  0.0488 -1.1088
   88MOL   C26528279   0.758   0.802   4.932  0.1495 -0.0074 -0.6199
   88MOL   C26628280   1.036   0.819   4.670  0.4189  0.8928  0.0057
   88MOL   H26728281   0.947   0.941   4.823 -2.1476  0.1462  0.5350
   88MOL   H26828282   0.781   0.666   4.620  2.0051  0.7289 -0.5322
   88MOL   H26928283   0.517   0.557   4.929  0.3242 -1.1425  0.0187
   88MOL   H27028284   0.627   0.737   5.084 -1.3612 -1.6406 -1.0731
   88MOL   H27128285   0.798   0.877   4.998 -1.8460 -1.0540  1.8867
   88MOL   H27228286   1.003   0.722   4.633 -2.7683  2.3753 -1.2271
   88MOL   H27328287   1.073   0.883   4.590 -1.4943  3.8678  1.4375
   88MOL   C27428288   1.157   0.797   4.766  0.2000 -0.1033  0.7179
   88MOL   C27528289   1.122   0.725   4.896 -0.3685 -0.5674 -0.2792
   88MOL   C27628290   1.105   0.804   5.017  0.5721 -0.1477 -0.0667
   88MOL   C27728291   1.079   0.743   5.140 -0.5147  0.4151  0.0336
   88MOL  Cl27828292   1.050   0.851   5.273  0.0544  0.0416  0.0285
   88MOL   C27928293   1.088   0.603   5.146 -0.1974 -0.3069 -0.3845
   88MOL   C28028294   1.095   0.526   5.023  0.6653 -0.6401 -0.2503
   88MOL   C28128295   1.108   0.588   4.898 -0.0556  0.1085  0.1611
   88MOL   C28228296   1.285   0.732   4.696  0.2107 -0.2023 -0.2172
   88MOL   H28328297   1.192   0.897   4.792 -2.9148  1.2455 -0.0838
   88MOL   H28428298   1.117   0.911   5.014 -1.4451  0.1159  0.7155
   88MOL   H28528299   1.088   0.545   5.237 -2.4911  0.5104  0.1798
   88MOL   H28628300   1.095   0.418   5.026 -0.0479 -0.6278  0.1927
   88MOL   H28728301   1.116   0.522   4.813 -2.0930  0.7012 -0.5218
   88MOL   H28828302   1.363   0.716   4.770 -0.1647  0.2525  0.2791
   88MOL   H28928303   1.251   0.636   4.656 -0.3234 -0.0420 -0.1511
   88MOL   C29028304   1.344   0.815   4.579 -0.5108  0.6107 -0.3388
   88MOL   C29128305   1.377   0.956   4.622 -0.0589  0.0731  0.1099
   88MOL   C29228306   1.462   0.973   4.734  0.0209  0.3970 -0.0123
   88MOL   C29328307   1.484   1.104   4.792  0.2732  0.2794  0.0511
   88MOL  Cl29428308   1.567   1.120   4.941  0.0666 -0.1955 -0.2689
   88MOL   C29528309   1.440   1.217   4.720 -0.5232  0.0104  0.3010
   88MOL   C29628310   1.363   1.196   4.601  0.6145  0.3842  1.0801
   88MOL   C29728311   1.338   1.068   4.552  0.2362  0.9826  0.2231
   88MOL   C29828312   1.467   0.753   4.518  0.2381  0.3810 -0.6342
   88MOL   H29928313   1.267   0.829   4.502 -1.5419 -1.2620  0.3282
   88MOL   H30028314   1.504   0.892   4.791 -1.1642 -0.0500  0.2292
   88MOL   H30128315   1.465   1.315   4.758  3.7872 -1.0045  0.3327
   88MOL   H30228316   1.341   1.281   4.539 -1.7447  0.3666  1.8343
   88MOL   H30328317   1.285   1.056   4.458  0.3708  2.5035 -0.0521
   88MOL   H30428318   1.483   0.827   4.440  0.0352  0.6476 -0.4222
   88MOL   H30528319   1.558   0.763   4.577 -0.3411  0.8333  0.2033
   88MOL   C30628320   1.437   0.607   4.451  0.3568 -0.0559  0.4853
   88MOL   C30728321   1.300   0.596   4.384 -0.4309 -0.3298  0.0278
   88MOL   C30828322   1.203   0.515   4.443 -0.1461  0.5135 -0.6017
   88MOL   C30928323   1.077   0.491   4.382  0.4141  0.5212 -0.7519
   88MOL  Cl31028324   0.964   0.375   4.457  0.0828 -0.2904 -0.2646
   88MOL   C31128325   1.035   0.569   4.270  0.6381 -0.2238 -0.5769
   88MOL   C31228326   1.127   0.651   4.205 -0.6554  0.1220 -0.0226
   88MOL   C31328327   1.258   0.663   4.261  0.1391  0.6316  0.4176
   88MOL   C31428328   1.545   0.575   4.351 -0.4170  0.3001  0.3586
   88MOL   H31528329   1.459   0.521   4.514  2.6800  0.2253  0.1369
   88MOL   H31628330   1.224   0.459   4.533 -1.7288  0.1000 -0.4812
   88MOL   H31728331   0.931   0.556   4.245 -0.7687  1.4765  3.8702
   88MOL   H31828332   1.101   0.693   4.110  1.4754 -1.3287 -1.2930
   88MOL   H31928333   1.327   0.733   4.217 -0.3028  0.6616 -0.2184
   88MOL   H32028334   1.634   0.583   4.413 -1.1855  1.6383  1.3169
   88MOL   H32128335   1.537   0.474   4.311 -1.8967  1.4796 -2.4852
   88MOL   H32228336   1.552   0.646   4.268 -2.1481  0.5371  0.3844
   89MOL     C128337   5.383   7.076   5.830  0.1616 -0.0451 -0.2178
   89MOL     C228338   5.275   7.179   5.829  0.0228  0.2475 -0.4331
   89MOL     C328339   5.294   7.288   5.914 -0.2025 -0.3841  1.0671
   89MOL     C428340   5.195   7.389   5.933 -0.1462 -0.3965 -0.3279
   89MOL    Cl528341   5.217   7.509   6.052 -0.1565 -0.0021 -0.2628
   89MOL     C628342   5.071   7.381   5.870 -0.1659  0.1069  0.0984
   89MOL     C728343   5.042   7.263   5.792 -0.0023  0.4959  0.5376
   89MOL     C828344   5.142   7.158   5.772 -0.2453  0.3084 -0.0601
   89MOL     C928345   5.428   7.034   5.968  0.3938 -0.0892 -0.3793
   89MOL    H1028346   5.475   7.097   5.775 -1.4887  0.2917 -2.9498
   89MOL    H1128347   5.389   7.308   5.961  1.5828  1.4070 -3.0100
   89MOL    H1228348   4.995   7.457   5.880 -0.0621  0.2301 -0.0605
   89MOL    H1328349   4.949   7.259   5.738  1.0287 -2.5502 -1.1798
   89MOL    H1428350   5.122   7.069   5.714  1.6465  1.2990 -2.3378
   89MOL    H1528351   5.528   7.078   5.973  1.1277 -1.7236 -0.3074
   89MOL    H1628352   5.373   7.074   6.053 -0.1397  1.4451 -1.4398
   89MOL    H1728353   5.344   6.986   5.783  0.1581 -0.3999  0.4749
   89MOL    C1828354   5.458   6.879   5.990 -0.3481 -0.1438 -0.3267
   89MOL    C1928355   5.534   6.822   5.868  0.0737  0.4500  0.4102
   89MOL    C2028356   5.484   6.701   5.811 -0.3767 -0.2111  0.2635
   89MOL    C2128357   5.561   6.641   5.703  0.9074  0.0955  0.1060
   89MOL   Cl2228358   5.502   6.496   5.635  0.1534 -0.0265 -0.2091
   89MOL    C2328359   5.680   6.701   5.655 -0.2370 -0.5609  0.5644
   89MOL    C2428360   5.717   6.829   5.708 -0.1401 -1.3524  0.1762
   89MOL    C2528361   5.648   6.885   5.819 -0.4496  0.2910 -0.4040
   89MOL    C2628362   5.539   6.858   6.119 -0.2345  0.5201 -0.3378
   89MOL    H2728363   5.360   6.832   5.991  0.1018 -1.2030  2.7396
   89MOL    H2828364   5.394   6.657   5.853 -0.4103 -0.4572 -0.0681
   89MOL    H2928365   5.732   6.661   5.569  1.1095 -1.5974  1.8300
   89MOL    H3028366   5.798   6.887   5.666  2.1966 -2.3829  3.1064
   89MOL    H3128367   5.694   6.973   5.862  1.5534 -0.3451 -1.1981
   89MOL    H3228368   5.641   6.890   6.101 -0.3076  1.1331  0.3204
   89MOL    H3328369   5.497   6.937   6.181 -2.2861 -0.2222 -0.7489
   89MOL    C3428370   5.537   6.729   6.190 -0.4913 -0.0582 -0.0068
   89MOL    C3528371   5.631   6.627   6.128 -0.1971 -0.0006 -0.2642
   89MOL    C3628372   5.580   6.514   6.057 -1.0647  0.1827 -0.2153
   89MOL    C3728373   5.677   6.432   5.992  0.1535  0.7530 -0.0489
   89MOL   Cl3828374   5.617   6.303   5.896  0.3656  0.1887  0.2848
   89MOL    C3928375   5.816   6.462   6.000  0.3080 -0.0647  0.0605
   89MOL    C4028376   5.866   6.569   6.073  0.4643 -0.1841 -0.5682
   89MOL    C4128377   5.769   6.656   6.134  0.1493 -0.0236  0.6238
   89MOL    C4228378   5.552   6.730   6.346 -0.0693  0.6271  0.7296
   89MOL    H4328379   5.443   6.675   6.181  0.6105 -2.5571  2.4938
   89MOL    H4428380   5.473   6.496   6.054 -0.8300 -1.1257 -1.2818
   89MOL    H4528381   5.886   6.390   5.962 -1.4116 -2.7854  1.8853
   89MOL    H4628382   5.972   6.586   6.084  0.3436  1.2373 -1.5090
   89MOL    H4728383   5.800   6.736   6.200 -0.9495  0.7053  0.2674
   89MOL    H4828384   5.515   6.638   6.392 -0.5340 -0.6946 -2.2037
   89MOL    H4928385   5.656   6.726   6.377  0.4089  0.4581 -0.8770
   89MOL    C5028386   5.479   6.844   6.426 -0.6898 -0.2195  0.6903
   89MOL    C5128387   5.328   6.842   6.390 -0.0961 -0.0248 -0.0876
   89MOL    C5228388   5.277   6.961   6.334  0.1946 -0.6754  0.2336
   89MOL    C5328389   5.161   6.960   6.259 -0.2164  0.2170  0.0395
   89MOL   Cl5428390   5.102   7.107   6.191  0.1473 -0.0705  0.2371
   89MOL    C5528391   5.086   6.839   6.256 -0.4745  0.0894 -0.3767
   89MOL    C5628392   5.132   6.722   6.310  0.2696  0.4036 -0.2663
   89MOL    C5728393   5.256   6.720   6.383  0.1637  0.3608 -0.1325
   89MOL    C5828394   5.507   6.833   6.583  0.1574 -0.0169 -0.2910
   89MOL    H5928395   5.509   6.945   6.398 -2.2845  0.3913  1.1149
   89MOL    H6028396   5.330   7.055   6.330 -1.0426  0.1726  2.9321
   89MOL    H6128397   4.988   6.844   6.211 -0.9243  0.2615  0.6086
   89MOL    H6228398   5.081   6.627   6.309  1.0189 -0.0347  1.2948
   89MOL    H6328399   5.268   6.626   6.435 -0.4023 -2.2033 -4.4457
   89MOL    H6428400   5.443   6.907   6.632 -0.6885 -1.2884  0.5328
   89MOL    H6528401   5.475   6.736   6.619  1.0026 -0.7417 -1.4512
   89MOL    C6628402   5.654   6.849   6.626 -0.3207 -0.0038  0.4687
   89MOL    C6728403   5.717   6.973   6.556  0.9479 -1.0945 -0.2267
   89MOL    C6828404   5.668   7.109   6.575 -0.1386  0.6828 -0.2882
   89MOL    C6928405   5.736   7.216   6.518 -0.1309  0.3747 -0.3657
   89MOL   Cl7028406   5.677   7.377   6.546 -0.2924 -0.6042  0.2561
   89MOL    C7128407   5.852   7.192   6.440  0.1319  0.0330  0.0924
   89MOL    C7228408   5.898   7.060   6.418  0.4517 -0.5097  0.4817
   89MOL    C7328409   5.833   6.949   6.476  0.0875 -0.0712  0.1415
   89MOL    C7428410   5.666   6.866   6.774 -0.3483  0.6288  0.3185
   89MOL    H7528411   5.708   6.763   6.585  1.5609  0.6938  1.4371
   89MOL    H7628412   5.578   7.117   6.634 -0.8214  0.6275 -1.3037
   89MOL    H7728413   5.912   7.276   6.409 -0.5559  0.6249  0.3631
   89MOL    H7828414   5.982   7.035   6.355 -1.4438 -1.9075 -1.5283
   89MOL    H7928415   5.875   6.850   6.472  1.1851  0.4037 -0.5045
   89MOL    H8028416   5.771   6.894   6.789 -0.6617  2.7458 -1.1762
   89MOL    H8128417   5.613   6.954   6.810  0.7330  1.3367  0.2041
   89MOL    C8228418   5.629   6.736   6.859 -0.6630 -0.7958  0.1871
   89MOL    C8328419   5.740   6.635   6.847  0.1290  0.2049 -0.1355
   89MOL    C8428420   5.722   6.518   6.775  0.3417 -0.0699  0.0296
   89MOL    C8528421   5.821   6.420   6.772  0.3144 -0.1298 -0.0335
   89MOL   Cl8628422   5.782   6.270   6.706 -0.0435  0.3490  0.5551
   89MOL    C8728423   5.951   6.448   6.823 -0.0717  0.3106  0.2311
   89MOL    C8828424   5.974   6.566   6.891  0.2021 -0.2785  0.2519
   89MOL    C8928425   5.873   6.659   6.908  0.7428  0.3437 -0.3817
   89MOL    C9028426   5.600   6.777   7.009  0.4009  0.0606 -0.3464
   89MOL    H9128427   5.539   6.687   6.821 -0.8139 -1.6506  1.6425
   89MOL    H9228428   5.630   6.502   6.721  0.4431 -0.6669  0.0286
   89MOL    H9328429   6.034   6.380   6.818  1.6633  2.5109 -3.2890
   89MOL    H9428430   6.074   6.583   6.927  0.5254 -0.9008 -0.3498
   89MOL    H9528431   5.887   6.751   6.961 -0.4709  0.0839  0.3959
   89MOL    H9628432   5.686   6.835   7.042 -0.8255  0.8099  1.6542
   89MOL    H9728433   5.525   6.855   7.016  0.9495  0.5542  0.0604
   89MOL    C9828434   5.579   6.655   7.106  1.4876 -0.8201 -0.2630
   89MOL    C9928435   5.682   6.648   7.219  0.6772  0.2748  0.2513
   89MOL   C10028436   5.681   6.736   7.332  0.5857  0.6660  0.5571
   89MOL   C10128437   5.787   6.729   7.430  0.1579 -0.4750 -0.1193
   89MOL  Cl10228438   5.783   6.848   7.557 -0.1231  0.2042 -0.0105
   89MOL   C10328439   5.895   6.642   7.418 -0.5686 -1.1197  0.7157
   89MOL   C10428440   5.888   6.546   7.315 -0.0097 -0.0037 -0.4531
   89MOL   C10528441   5.788   6.552   7.214  0.7957  0.1248 -0.2355
   89MOL   C10628442   5.435   6.664   7.166  0.1181  0.1643 -0.5155
   89MOL   H10728443   5.599   6.567   7.045  0.2243 -2.5081  1.6744
   89MOL   H10828444   5.603   6.810   7.341 -0.2337 -0.3530  2.0995
   89MOL   H10928445   5.969   6.635   7.497  0.8126  0.8901 -0.3817
   89MOL   H11028446   5.958   6.464   7.320 -0.8712 -0.7607 -0.5455
   89MOL   H11128447   5.770   6.474   7.142 -0.9900  0.8509 -0.6078
   89MOL   H11228448   5.439   6.678   7.274 -0.0445 -1.3174 -0.3021
   89MOL   H11328449   5.380   6.746   7.122 -0.3101  0.7262  1.0218
   89MOL   C11428450   5.349   6.534   7.144  0.0146 -0.0498 -0.1456
   89MOL   C11528451   5.434   6.408   7.181 -0.7156  0.4638  0.6873
   89MOL   C11628452   5.475   6.393   7.314  0.6007  0.2273  0.3429
   89MOL   C11728453   5.558   6.288   7.347 -0.4022  0.3693 -0.2191
   89MOL  Cl11828454   5.601   6.258   7.512 -0.3279 -0.0403  0.4082
   89MOL   C11928455   5.608   6.197   7.256  0.6614  0.5189 -0.4596
   89MOL   C12028456   5.564   6.202   7.124 -1.0210  0.4215  0.0868
   89MOL   C12128457   5.476   6.307   7.084  0.2591  0.1918  1.0013
   89MOL   C12228458   5.210   6.527   7.211  0.2130  0.2141  0.0286
   89MOL   H12328459   5.332   6.540   7.036 -2.1563  0.4842  0.1957
   89MOL   H12428460   5.445   6.471   7.383  1.3049  1.9114 -1.2265
   89MOL   H12528461   5.677   6.127   7.300  0.1613 -0.0914 -0.6370
   89MOL   H12628462   5.595   6.130   7.049 -0.4640  2.6724 -1.8956
   89MOL   H12728463   5.452   6.320   6.979  2.3792 -0.1261  0.4530
   89MOL   H12828464   5.225   6.534   7.319  0.9878 -3.1868  0.1909
   89MOL   H12928465   5.150   6.614   7.182 -0.7455  0.0356  1.4344
   89MOL   C13028466   5.129   6.393   7.202  0.4738  0.5276  0.4225
   89MOL   C13128467   5.019   6.381   7.317 -0.7028  0.5600  0.2679
   89MOL   C13228468   4.918   6.478   7.322 -0.3262  0.3247 -0.0062
   89MOL   C13328469   4.823   6.465   7.426  0.9141  0.3305 -0.1755
   89MOL  Cl13428470   4.685   6.567   7.423 -0.3438  0.5127  0.1251
   89MOL   C13528471   4.823   6.352   7.519 -0.4821  0.0769  0.2548
   89MOL   C13628472   4.931   6.255   7.507 -0.5469  0.0863 -0.2834
   89MOL   C13728473   5.028   6.270   7.404  0.0851  0.4098  0.1128
   89MOL   C13828474   5.065   6.374   7.057  0.4586 -0.6303  0.2488
   89MOL   H13928475   5.192   6.305   7.216  0.3651  0.2109 -0.9966
   89MOL   H14028476   4.925   6.555   7.248  0.2183  1.0487  0.7845
   89MOL   H14128477   4.743   6.332   7.588  0.8302 -0.9722  1.5127
   89MOL   H14228478   4.925   6.168   7.572 -1.5727 -3.4700 -4.8593
   89MOL   H14328479   5.105   6.195   7.393 -0.7709 -0.6008  0.9349
   89MOL   H14428480   4.957   6.384   7.067  0.5567  0.8581 -0.0095
   89MOL   H14528481   5.097   6.452   6.988  0.6792 -1.8075 -0.9927
   89MOL   C14628482   5.086   6.242   6.984 -0.3656 -0.3634 -0.3309
   89MOL   C14728483   5.093   6.117   7.075 -0.0448 -0.8764  0.2779
   89MOL   C14828484   4.986   6.077   7.152  0.1641 -0.5531 -0.3994
   89MOL   C14928485   4.996   5.964   7.236  0.0067 -0.1531 -0.2213
   89MOL  Cl15028486   4.858   5.918   7.331  0.3857  0.1623  0.4336
   89MOL   C15128487   5.115   5.891   7.238 -0.3178  0.0522 -0.2180
   89MOL   C15228488   5.223   5.928   7.161  0.1439  0.2013  0.1322
   89MOL   C15328489   5.212   6.039   7.075  0.3877  0.4580  0.3330
   89MOL   C15428490   4.996   6.227   6.863  0.3506  0.0045 -0.5416
   89MOL   H15528491   5.189   6.230   6.950  0.1080  0.7822  0.6801
   89MOL   H15628492   4.890   6.125   7.154  1.3256  1.8214  2.4578
   89MOL   H15728493   5.119   5.799   7.294 -1.0947  1.0965  1.5960
   89MOL   H15828494   5.314   5.870   7.161 -1.0545 -1.7492  0.8030
   89MOL   H15928495   5.294   6.075   7.015 -1.3363  0.6501 -1.9600
   89MOL   H16028496   5.008   6.129   6.818  1.4399 -0.2101  0.1912
   89MOL   H16128497   4.894   6.226   6.901  0.2538 -0.7614 -0.8153
   89MOL   C16228498   5.004   6.327   6.749 -1.2210 -0.2615  0.3303
   89MOL   C16328499   5.146   6.340   6.689 -0.3246 -0.3563 -0.2957
   89MOL   C16428500   5.208   6.230   6.626  0.3628 -0.3401 -0.2509
   89MOL   C16528501   5.341   6.240   6.586 -1.1851 -0.3814 -0.2892
   89MOL  Cl16628502   5.397   6.102   6.506  0.2425 -0.0148  0.3759
   89MOL   C16728503   5.411   6.358   6.613 -0.2279 -0.1255 -0.1951
   89MOL   C16828504   5.346   6.469   6.671  0.2069 -0.7906 -0.3265
   89MOL   C16928505   5.206   6.465   6.699  0.0183  0.2899  0.1601
   89MOL   C17028506   4.896   6.299   6.636 -0.3174 -0.1253  0.0373
   89MOL   H17128507   4.978   6.418   6.803  0.2402  0.3797 -0.0101
   89MOL   H17228508   5.162   6.134   6.606 -0.3060 -0.3333  1.2422
   89MOL   H17328509   5.516   6.370   6.588 -0.7872 -1.6754 -3.4933
   89MOL   H17428510   5.405   6.556   6.697 -1.8642  0.0303  1.6978
   89MOL   H17528511   5.157   6.555   6.732 -0.9246  0.7029 -2.2686
   89MOL   H17628512   4.932   6.202   6.602  0.1703 -0.4323  1.3605
   89MOL   H17728513   4.797   6.295   6.682  0.5449 -1.1483  1.9036
   89MOL   C17828514   4.901   6.397   6.516  0.3009 -0.3082  0.4793
   89MOL   C17928515   4.957   6.335   6.385 -0.0242 -0.3192  0.8724
   89MOL   C18028516   5.093   6.351   6.354  0.5337 -0.1634 -0.5750
   89MOL   C18128517   5.141   6.299   6.228 -0.7304 -0.0393 -0.0723
   89MOL  Cl18228518   5.308   6.292   6.207 -0.2205 -0.1116  0.3035
   89MOL   C18328519   5.056   6.228   6.135  0.1536 -0.4212  0.0611
   89MOL   C18428520   4.915   6.219   6.170 -0.1461 -0.4076 -0.2899
   89MOL   C18528521   4.876   6.259   6.297 -0.2758 -0.3700 -0.0105
   89MOL   C18628522   4.759   6.466   6.503  0.6276 -0.2761 -1.1039
   89MOL   H18728523   4.967   6.477   6.549 -2.5956  1.1723  2.9831
   89MOL   H18828524   5.162   6.410   6.412 -0.6594  0.7116 -0.0285
   89MOL   H18928525   5.088   6.194   6.037 -0.5661  0.9681 -0.6687
   89MOL   H19028526   4.845   6.187   6.095  0.7809  2.3618 -2.4281
   89MOL   H19128527   4.774   6.242   6.329 -0.0937 -3.0639 -0.7016
   89MOL   H19228528   4.774   6.518   6.408 -0.1624  0.3224 -0.9001
   89MOL   H19328529   4.681   6.397   6.472  1.1392 -1.4647  0.2035
   89MOL   C19428530   4.727   6.567   6.620 -0.1703  0.4535  0.2252
   89MOL   C19528531   4.802   6.701   6.618  0.3761  0.2617  0.6162
   89MOL   C19628532   4.765   6.806   6.530  0.3095  0.1670  0.4657
   89MOL   C19728533   4.853   6.914   6.514  0.1696 -0.1009  0.1698
   89MOL  Cl19828534   4.792   7.044   6.422  0.5197 -0.2350 -0.1401
   89MOL   C19928535   4.971   6.925   6.590 -0.3893  0.6860  0.2085
   89MOL   C20028536   5.011   6.822   6.676 -0.1104  0.1302 -0.5444
   89MOL   C20128537   4.924   6.711   6.688  0.3684 -0.6306  0.5059
   89MOL   C20228538   4.573   6.592   6.647 -0.2324  0.1181  0.7560
   89MOL   H20328539   4.762   6.523   6.714  1.9971  2.1475  0.2563
   89MOL   H20428540   4.677   6.791   6.470  0.5385 -0.9635  0.4116
   89MOL   H20528541   5.036   7.011   6.592  0.3873  0.0978  0.6046
   89MOL   H20628542   5.113   6.820   6.712 -1.1519 -1.4155  2.4483
   89MOL   H20728543   4.955   6.636   6.759 -2.5180 -1.4040  1.0164
   89MOL   H20828544   4.575   6.678   6.714  4.0491  0.3630  0.3949
   89MOL   H20928545   4.540   6.640   6.555  1.5257  0.0766  0.0884
   89MOL   C21028546   4.495   6.474   6.696  0.0057  0.0204 -0.2919
   89MOL   C21128547   4.552   6.412   6.828 -0.4974  0.0087  0.3371
   89MOL   C21228548   4.571   6.271   6.844 -0.2979  0.2254 -0.0226
   89MOL   C21328549   4.605   6.214   6.969 -0.2709 -0.6048  0.1804
   89MOL  Cl21428550   4.615   6.043   6.997  0.2632  0.4133 -0.2519
   89MOL   C21528551   4.619   6.301   7.076 -0.3701 -0.6713  0.1484
   89MOL   C21628552   4.611   6.441   7.061 -0.1055  0.5010 -0.0255
   89MOL   C21728553   4.568   6.491   6.941  0.3605 -0.1996 -0.4849
   89MOL   C21828554   4.347   6.509   6.716 -0.7445 -0.2189  0.2426
   89MOL   H21928555   4.511   6.397   6.621  0.0472  1.7443 -2.1104
   89MOL   H22028556   4.549   6.209   6.758 -1.5738  0.6804 -0.0376
   89MOL   H22128557   4.644   6.257   7.171  2.0607  2.5549  1.1078
   89MOL   H22228558   4.637   6.499   7.147  0.7616  1.3129 -0.8345
   89MOL   H22328559   4.542   6.595   6.926 -1.1835 -0.2991  1.3688
   89MOL   H22428560   4.303   6.457   6.801 -1.8070  0.7790  0.3154
   89MOL   H22528561   4.334   6.615   6.739 -0.0972 -0.1148  0.1337
   89MOL   C22628562   4.255   6.476   6.597  0.3433  0.1869 -0.7765
   89MOL   C22728563   4.258   6.330   6.539 -0.1290  0.0667 -0.2932
   89MOL   C22828564   4.294   6.225   6.622  0.8596 -0.1607 -0.5899
   89MOL   C22928565   4.313   6.096   6.579 -0.1208  0.0050  0.2454
   89MOL  Cl23028566   4.370   5.974   6.690  0.2219 -0.1359 -0.1656
   89MOL   C23128567   4.287   6.066   6.444  0.7398  0.1256  0.2543
   89MOL   C23228568   4.259   6.168   6.351  0.0942 -0.3879  0.3665
   89MOL   C23328569   4.249   6.304   6.399 -0.0504  0.1796  0.4588
   89MOL   C23428570   4.105   6.524   6.635 -0.3834 -0.7643 -0.2417
   89MOL   H23528571   4.283   6.551   6.523  0.2183  1.1149  0.1138
   89MOL   H23628572   4.323   6.246   6.724 -2.3373 -1.2012  0.6214
   89MOL   H23728573   4.287   5.962   6.414 -0.2958  0.7076 -1.8289
   89MOL   H23828574   4.244   6.155   6.245  1.3088 -2.1532  0.3956
   89MOL   H23928575   4.225   6.385   6.332  2.0068 -1.0135 -1.7951
   89MOL   H24028576   4.079   6.471   6.726 -0.5275 -1.5034 -0.7037
   89MOL   H24128577   4.114   6.628   6.663 -1.8395 -1.0123  1.2468
   89MOL   C24228578   3.992   6.513   6.530 -0.2336 -0.4335 -0.3007
   89MOL   C24328579   3.860   6.541   6.605  0.2452  0.0675 -0.2143
   89MOL   C24428580   3.750   6.454   6.601  0.2311  0.2686  0.1197
   89MOL   C24528581   3.628   6.495   6.659  0.1302 -0.4093  0.7887
   89MOL  Cl24628582   3.486   6.385   6.648 -0.2621  0.0713 -0.0645
   89MOL   C24728583   3.608   6.620   6.716  0.0893 -0.1110  0.2370
   89MOL   C24828584   3.722   6.705   6.729 -0.0667 -0.0184  0.2861
   89MOL   C24928585   3.846   6.667   6.675 -0.5731  0.9806  0.6693
   89MOL   C25028586   4.012   6.604   6.407 -0.3891  0.1589  0.0011
   89MOL   H25128587   3.989   6.409   6.498  0.3365 -1.1949  2.0315
   89MOL   H25228588   3.763   6.355   6.561  1.6515 -0.1211  1.4819
   89MOL   H25328589   3.511   6.652   6.751  0.6227  2.6185 -0.6333
   89MOL   H25428590   3.710   6.804   6.770 -1.0428  0.2565 -0.6452
   89MOL   H25528591   3.928   6.737   6.680 -0.7213  1.1880  0.1729
   89MOL   H25628592   4.060   6.693   6.447 -2.0810  1.9271 -1.7724
   89MOL   H25728593   4.084   6.573   6.331 -1.1988  1.4993 -1.3462
   89MOL   C25828594   3.884   6.661   6.339  0.3269 -0.0949  0.1566
   89MOL   C25928595   3.879   6.815   6.334 -0.9005  0.2611 -0.5887
   89MOL   C26028596   3.800   6.884   6.432 -0.0770  0.1792  0.1030
   89MOL   C26128597   3.807   7.023   6.448 -0.3364 -0.4985 -0.2119
   89MOL  Cl26228598   3.719   7.099   6.572 -0.1960  0.0134  0.5883
   89MOL   C26328599   3.895   7.096   6.362 -1.1159 -0.4108 -0.5747
   89MOL   C26428600   3.981   7.024   6.280 -0.1370 -0.7563  0.1704
   89MOL   C26528601   3.969   6.888   6.254  0.5253 -0.3369  0.2431
   89MOL   C26628602   3.850   6.607   6.197 -0.0195  0.3600  0.6102
   89MOL   H26728603   3.799   6.628   6.398 -0.6617  1.5779 -0.2963
   89MOL   H26828604   3.746   6.823   6.503 -0.2464 -1.4099 -1.3771
   89MOL   H26928605   3.908   7.203   6.366  0.1132 -0.5545 -0.6470
   89MOL   H27028606   4.052   7.083   6.224  0.0344 -2.9840 -2.0172
   89MOL   H27128607   4.040   6.839   6.189 -0.7903 -0.8503 -0.8380
   89MOL   H27228608   3.780   6.684   6.164 -0.3196 -0.7227 -1.3525
   89MOL   H27328609   3.930   6.621   6.125 -0.5829 -1.3022 -0.3605
   89MOL   C27428610   3.779   6.468   6.171 -0.2907  0.0832 -0.3035
   89MOL   C27528611   3.727   6.466   6.021  0.1880 -0.0887 -0.6444
   89MOL   C27628612   3.602   6.413   5.995  0.0229 -0.2449  0.7195
   89MOL   C27728613   3.548   6.413   5.867 -0.0498 -0.3218 -0.2913
   89MOL  Cl27828614   3.392   6.347   5.832  0.0273 -0.5962  0.3753
   89MOL   C27928615   3.627   6.462   5.760  0.6897  0.4578 -0.0863
   89MOL   C28028616   3.765   6.490   5.779 -0.2217 -0.1277 -0.4299
   89MOL   C28128617   3.817   6.493   5.909  0.0205 -0.2900 -0.1509
   89MOL   C28228618   3.869   6.347   6.194  0.4800 -0.2749  0.0108
   89MOL   H28328619   3.690   6.460   6.233  0.2985  1.1006  0.6967
   89MOL   H28428620   3.542   6.374   6.076 -0.1339  0.1983  0.8184
   89MOL   H28528621   3.591   6.479   5.659 -0.1840  2.9889  0.6140
   89MOL   H28628622   3.820   6.533   5.696  1.6962 -0.6118  0.5668
   89MOL   H28728623   3.922   6.515   5.923 -0.2041  1.8641 -1.6005
   89MOL   H28828624   3.941   6.333   6.113 -0.7257 -2.0327 -0.7982
   89MOL   H28928625   3.931   6.364   6.282  1.5092 -0.2731 -0.7006
   89MOL   C29028626   3.795   6.214   6.222 -0.4402  0.5615 -0.4311
   89MOL   C29128627   3.734   6.142   6.098  0.0934  0.8615  0.2050
   89MOL   C29228628   3.596   6.105   6.090 -0.0494 -0.4462  0.2045
   89MOL   C29328629   3.551   6.026   5.977 -0.7773  0.3828  0.0488
   89MOL  Cl29428630   3.380   5.991   5.959  0.6923  0.0056  0.0677
   89MOL   C29528631   3.640   5.974   5.882 -0.2983  0.7331 -0.3964
   89MOL   C29628632   3.779   6.011   5.891 -1.1204 -0.0589 -0.0431
   89MOL   C29728633   3.828   6.089   6.001 -0.4058  0.1519 -0.1882
   89MOL   C29828634   3.873   6.116   6.311 -0.4318  0.0868 -0.4079
   89MOL   H29928635   3.712   6.246   6.285  0.0548 -0.4674  0.7621
   89MOL   H30028636   3.525   6.140   6.163 -0.3605  0.6776 -0.6211
   89MOL   H30128637   3.614   5.909   5.800  2.4945  0.1366 -0.8475
   89MOL   H30228638   3.852   5.993   5.813  0.1634  0.4816  1.0075
   89MOL   H30328639   3.933   6.118   6.003 -0.2219 -0.4805  3.7279
   89MOL   H30428640   3.947   6.065   6.250  0.1035 -0.0060  0.3138
   89MOL   H30528641   3.928   6.176   6.384  0.7158 -1.8453  0.3459
   89MOL   C30628642   3.798   5.996   6.372  1.0145 -0.0845  0.1022
   89MOL   C30728643   3.869   5.903   6.466 -0.6930  0.1498 -0.4954
   89MOL   C30828644   3.822   5.767   6.478 -0.4664  0.0980 -0.6278
   89MOL   C30928645   3.877   5.687   6.577  0.4078  1.0079  0.1751
   89MOL  Cl31028646   3.795   5.537   6.599  0.1670  0.1932 -0.2244
   89MOL   C31128647   3.988   5.730   6.659  0.7348  0.0787 -0.0096
   89MOL   C31228648   4.044   5.856   6.635  0.3407  0.2736 -0.1877
   89MOL   C31328649   3.978   5.944   6.545  0.7764 -0.1016 -0.4889
   89MOL   C31428650   3.658   6.041   6.432  0.5295  0.5718  0.1613
   89MOL   H31528651   3.766   5.933   6.289  0.4537  0.0325  0.2217
   89MOL   H31628652   3.736   5.736   6.421  0.3837 -1.7777 -0.9457
   89MOL   H31728653   4.034   5.672   6.738  0.9795 -0.2996 -0.4293
   89MOL   H31828654   4.138   5.879   6.684  1.6678  0.0259 -2.5466
   89MOL   H31928655   4.019   6.044   6.540  1.4164 -0.4139 -1.8148
   89MOL   H32028656   3.670   6.098   6.525 -0.3396 -2.0533  1.9382
   89MOL   H32128657   3.583   6.087   6.367 -1.0231 -1.3543  0.5562
   89MOL   H32228658   3.596   5.955   6.458 -0.8730  1.6075  0.3171
   90MOL     C128659   8.050   1.852   2.021  0.3861  0.0350 -0.1885
   90MOL     C228660   8.042   1.829   2.173  0.4919 -0.5438 -0.3279
   90MOL     C328661   7.951   1.902   2.248  0.7076  0.0040 -0.5238
   90MOL     C428662   7.945   1.890   2.390  0.1852  0.5445 -0.6778
   90MOL    Cl528663   7.822   1.977   2.475 -0.0767  0.1340 -0.3536
   90MOL     C628664   8.037   1.806   2.453  0.0133  0.2350 -0.1262
   90MOL     C728665   8.137   1.738   2.379 -0.0190  0.3182 -0.6480
   90MOL     C828666   8.132   1.747   2.235 -0.0362 -0.9000  0.5218
   90MOL     C928667   8.086   1.989   1.985 -0.0305 -0.2370 -0.1889
   90MOL    H1028668   7.947   1.840   1.986  0.4388 -0.2262 -0.2475
   90MOL    H1128669   7.884   1.976   2.206 -1.1414 -0.4986  1.4581
   90MOL    H1228670   8.037   1.802   2.561 -2.0256  0.6622 -0.0832
   90MOL    H1328671   8.216   1.679   2.422  0.9611  0.4724 -2.2001
   90MOL    H1428672   8.211   1.707   2.174 -0.8044 -0.8152 -0.5328
   90MOL    H1528673   8.005   2.061   1.997  1.3594  1.4401 -0.6894
   90MOL    H1628674   8.183   2.008   2.030 -0.5516 -0.6075  1.1094
   90MOL    H1728675   8.110   1.784   1.960 -0.7024 -0.5042 -0.6681
   90MOL    C1828676   8.130   1.993   1.837 -0.7918  1.1533  0.2231
   90MOL    C1928677   8.013   1.966   1.743 -0.1852 -0.2624 -0.2644
   90MOL    C2028678   8.022   1.877   1.637 -0.3068  0.5084  0.3818
   90MOL    C2128679   7.918   1.849   1.550  0.5211 -0.6911 -0.1837
   90MOL   Cl2228680   7.935   1.743   1.418 -0.1290  0.1166 -0.2659
   90MOL    C2328681   7.799   1.923   1.561  0.3172  0.6477 -0.4350
   90MOL    C2428682   7.788   2.014   1.671 -0.1470  0.1056 -0.2104
   90MOL    C2528683   7.888   2.030   1.758 -0.1608  0.7560  0.4654
   90MOL    C2628684   8.217   2.111   1.783 -0.0795 -0.3742 -0.8209
   90MOL    H2728685   8.208   1.917   1.834 -0.7552  1.2465 -1.3874
   90MOL    H2828686   8.110   1.819   1.616 -0.3740 -0.0104  1.4698
   90MOL    H2928687   7.719   1.899   1.492  1.5738 -0.4682 -1.5200
   90MOL    H3028688   7.708   2.087   1.677 -0.4357 -0.2295 -0.0228
   90MOL    H3128689   7.870   2.099   1.840  0.7075  1.7155 -0.1408
   90MOL    H3228690   8.305   2.126   1.846 -1.3901  1.7808  0.5747
   90MOL    H3328691   8.254   2.084   1.685  0.0360  0.6057 -1.0527
   90MOL    C3428692   8.160   2.257   1.763  0.9514  0.0688  0.5909
   90MOL    C3528693   8.141   2.336   1.896 -0.5603 -0.0206 -0.0017
   90MOL    C3628694   8.017   2.330   1.963  0.7038 -0.3612  0.2209
   90MOL    C3728695   8.003   2.392   2.092 -1.0071  0.2343  0.1152
   90MOL   Cl3828696   7.855   2.382   2.185  0.2995  0.0401  0.4118
   90MOL    C3928697   8.119   2.444   2.151  0.2825  0.2614 -0.7626
   90MOL    C4028698   8.242   2.456   2.081 -0.2209  0.2136 -0.5053
   90MOL    C4128699   8.254   2.400   1.955 -0.4195  0.3616 -0.0799
   90MOL    C4228700   8.242   2.338   1.662 -0.9374 -0.3721  0.1190
   90MOL    H4328701   8.058   2.248   1.725  0.1973  2.1259  2.0074
   90MOL    H4428702   7.930   2.287   1.915  0.3696  0.1574  0.3588
   90MOL    H4528703   8.109   2.490   2.249 -0.1681 -1.8842  0.2181
   90MOL    H4628704   8.328   2.499   2.130  0.9133 -1.4946 -0.9641
   90MOL    H4728705   8.344   2.410   1.898  0.6506 -1.3707  1.2561
   90MOL    H4828706   8.341   2.326   1.707 -1.3884  0.6059  1.4101
   90MOL    H4928707   8.239   2.282   1.569  1.1013 -1.6192  0.7786
   90MOL    C5028708   8.210   2.495   1.639  0.4855 -1.2323 -0.2347
   90MOL    C5128709   8.319   2.559   1.560  0.8431  0.6011 -0.1311
   90MOL    C5228710   8.412   2.637   1.624 -0.3409 -0.1607  0.2098
   90MOL    C5328711   0.086   2.701   1.563 -0.4841  0.1691  0.2092
   90MOL   Cl5428712   0.193   2.802   1.643 -0.2948 -0.0539  0.4226
   90MOL    C5528713   0.089   2.698   1.421 -0.0671  0.1201  0.5014
   90MOL    C5628714   8.421   2.626   1.346  0.7814 -0.5159  0.0377
   90MOL    C5728715   8.326   2.555   1.416  0.1249 -0.3875 -0.0049
   90MOL    C5828716   8.070   2.509   1.585  0.6976  0.0043  0.3618
   90MOL    H5928717   8.214   2.538   1.738  0.2308 -1.1469 -0.2599
   90MOL    H6028718   8.416   2.642   1.732  0.5298 -1.1487  0.2294
   90MOL    H6128719   0.171   2.747   1.369 -0.8993  0.4224 -0.5401
   90MOL    H6228720   8.422   2.613   1.239  0.7102  2.5503 -0.4008
   90MOL    H6328721   8.249   2.507   1.357 -0.3564  1.3951 -0.8561
   90MOL    H6428722   8.070   2.443   1.499 -0.4256  0.7505 -0.2213
   90MOL    H6528723   8.003   2.461   1.657 -0.6569  0.8936 -0.2835
   90MOL    C6628724   8.013   2.642   1.531  0.8317 -0.1577  0.4844
   90MOL    C6728725   7.872   2.640   1.472  0.2532 -0.1124  0.3759
   90MOL    C6828726   7.763   2.579   1.546  0.1774 -0.4715 -0.2316
   90MOL    C6928727   7.634   2.561   1.493 -0.3830  0.0046 -0.1486
   90MOL   Cl7028728   7.505   2.492   1.586 -0.0663  0.1014  0.0674
   90MOL    C7128729   7.610   2.598   1.359 -0.0211  0.5019 -0.1505
   90MOL    C7228730   7.714   2.662   1.288 -0.3986  0.2780  0.4422
   90MOL    C7328731   7.844   2.680   1.342  0.4557 -0.5009 -0.4144
   90MOL    C7428732   8.018   2.750   1.638  0.3548 -0.0765  0.2614
   90MOL    H7528733   8.084   2.680   1.457 -0.1618 -0.4865 -0.6532
   90MOL    H7628734   7.780   2.539   1.645  0.3115 -0.1257 -0.1156
   90MOL    H7728735   7.514   2.575   1.315  0.4741 -0.4606 -0.7376
   90MOL    H7828736   7.687   2.683   1.186 -3.4825 -1.5143  0.8254
   90MOL    H7928737   7.925   2.724   1.287  0.7089  0.7847  0.9525
   90MOL    H8028738   7.945   2.714   1.711 -0.0998  0.0554 -0.1244
   90MOL    H8128739   8.111   2.746   1.694  0.8034 -1.6050 -0.5757
   90MOL    C8228740   7.994   2.893   1.588 -0.5154  0.2895 -0.4451
   90MOL    C8328741   7.937   2.977   1.705  0.2027  0.7118  1.0104
   90MOL    C8428742   7.796   2.990   1.701  0.0906  0.1319 -0.5648
   90MOL    C8528743   7.738   3.065   1.807  0.3309  0.2772  0.7636
   90MOL   Cl8628744   7.570   3.081   1.798 -0.3174  0.0152 -0.0834
   90MOL    C8728745   7.810   3.101   1.923  0.2575 -0.0344 -0.4338
   90MOL    C8828746   7.948   3.075   1.927 -0.6359  0.1612  0.5832
   90MOL    C8928747   8.014   3.024   1.812 -0.5120  0.2014 -0.5840
   90MOL    C9028748   8.122   2.947   1.522 -0.5173  0.6453  0.1822
   90MOL    H9128749   7.905   2.886   1.525 -0.3389 -1.9666 -0.4656
   90MOL    H9228750   7.733   2.954   1.622  1.8407 -2.2514 -0.9181
   90MOL    H9328751   7.758   3.149   2.004  0.0367  0.3668 -0.8120
   90MOL    H9428752   8.009   3.106   2.011 -0.3812  1.0752  0.0589
   90MOL    H9528753   8.121   3.010   1.807 -0.8593 -2.8131 -0.4263
   90MOL    H9628754   8.179   3.000   1.599 -0.2681  0.5795  0.0413
   90MOL    H9728755   8.189   2.872   1.481  0.0547  0.7293  0.9499
   90MOL    C9828756   8.092   3.059   1.418  0.2117 -0.1169 -0.5293
   90MOL    C9928757   8.215   3.151   1.385 -0.2052  0.6179  0.1865
   90MOL   C10028758   8.200   3.292   1.382 -0.1290 -0.1360  0.1114
   90MOL   C10128759   8.304   3.376   1.354  0.3444 -0.4569  0.3682
   90MOL  Cl10228760   8.292   3.549   1.365 -0.4319  0.2368  0.0915
   90MOL   C10328761   8.432   3.314   1.335  0.3979 -0.6123 -0.4768
   90MOL   C10428762   0.013   3.178   1.333  0.7041 -0.4798  0.1049
   90MOL   C10528763   8.338   3.097   1.361 -0.0705 -0.0219 -0.4836
   90MOL   C10628764   8.026   3.005   1.287 -0.1745 -0.6962  0.0068
   90MOL   H10728765   8.025   3.123   1.475  2.2399  0.0790  1.7242
   90MOL   H10828766   8.105   3.337   1.405 -0.8242 -0.9322 -1.1371
   90MOL   H10928767   0.081   3.375   1.306  1.9191 -1.8544  1.2406
   90MOL   H11028768   0.113   3.142   1.311  1.8864  2.6426  0.0223
   90MOL   H11128769   8.351   2.990   1.362  0.3358  0.0328  0.6837
   90MOL   H11228770   8.084   2.925   1.241  0.0705 -0.1125 -0.7053
   90MOL   H11328771   7.943   2.939   1.314 -1.6747  1.2232  0.1553
   90MOL   C11428772   7.985   3.111   1.182  0.3293 -0.3263 -0.0508
   90MOL   C11528773   7.945   3.039   1.055 -0.4731 -0.4414 -0.2225
   90MOL   C11628774   7.834   2.958   1.038  0.3754 -0.3177 -0.0099
   90MOL   C11728775   7.791   2.908   0.914 -0.0891  0.0997  0.8582
   90MOL  Cl11828776   7.668   2.795   0.915  0.2006  0.1562  0.5476
   90MOL   C11928777   7.866   2.940   0.795  0.6257 -0.0471 -0.6654
   90MOL   C12028778   7.976   3.024   0.811  0.3825  0.0542  0.2325
   90MOL   C12128779   8.018   3.067   0.937  0.2985  0.6050 -0.0705
   90MOL   C12228780   7.875   3.211   1.224  0.2505 -0.1688  0.1056
   90MOL   H12328781   8.077   3.167   1.165  0.6294 -0.7405  0.1921
   90MOL   H12428782   7.773   2.925   1.121  2.8213 -2.6934  0.8797
   90MOL   H12528783   7.833   2.905   0.698  0.3702 -0.0675 -0.5708
   90MOL   H12628784   8.034   3.055   0.726 -1.4732  0.0809 -1.0369
   90MOL   H12728785   8.100   3.136   0.945  1.4487 -0.9669  2.4603
   90MOL   H12828786   7.782   3.159   1.243  0.6116 -0.0864  2.2101
   90MOL   H12928787   7.913   3.256   1.316 -0.9214  1.4444 -0.1740
   90MOL   C13028788   7.843   3.321   1.121  0.1681 -0.9080 -0.7094
   90MOL   C13128789   7.697   3.319   1.087 -0.2672  0.6401 -0.0850
   90MOL   C13228790   7.666   3.242   0.975  0.4182 -0.3846 -0.0908
   90MOL   C13328791   7.533   3.214   0.950 -1.0858 -0.1245  0.2046
   90MOL  Cl13428792   7.495   3.123   0.815 -0.0838 -0.1101  0.0709
   90MOL   C13528793   7.432   3.278   1.027  1.2928  0.3919 -0.1249
   90MOL   C13628794   7.464   3.358   1.140  0.4708 -0.2495 -0.4847
   90MOL   C13728795   7.600   3.368   1.173  0.1632 -0.1087 -0.2288
   90MOL   C13828796   7.895   3.458   1.162  0.3608  0.0984  0.2946
   90MOL   H13928797   7.884   3.299   1.023 -0.4628 -1.3055 -0.8873
   90MOL   H14028798   7.742   3.203   0.910  0.1136  1.3986 -1.5322
   90MOL   H14128799   7.325   3.272   1.008  1.2590 -0.1850  0.2289
   90MOL   H14228800   7.386   3.398   1.202 -0.3431 -0.0578 -1.6367
   90MOL   H14328801   7.640   3.428   1.254 -1.4703  2.4511 -1.2860
   90MOL   H14428802   7.834   3.491   1.247  0.5912  0.6101  0.2621
   90MOL   H14528803   7.998   3.444   1.194  1.4818  1.7723 -2.4533
   90MOL   C14628804   7.892   3.565   1.054 -0.1296  0.3291  0.1955
   90MOL   C14728805   7.912   3.698   1.123 -0.0076 -0.0450  0.0494
   90MOL   C14828806   8.036   3.746   1.176 -0.6845  0.3612 -0.1460
   90MOL   C14928807   8.044   3.880   1.225  0.0527 -0.1751 -0.6254
   90MOL  Cl15028808   8.197   3.942   1.270 -0.1029 -0.1443 -0.2930
   90MOL   C15128809   7.939   3.970   1.224  0.1096 -0.0250 -0.3965
   90MOL   C15228810   7.814   3.922   1.181 -0.5289  0.1840 -0.2565
   90MOL   C15328811   7.799   3.786   1.134 -0.1095  0.0109 -0.2447
   90MOL   C15428812   7.990   3.545   0.931  0.1918  0.3028 -0.6260
   90MOL   H15528813   7.793   3.574   1.010  0.5399 -1.4565 -1.7668
   90MOL   H15628814   8.121   3.680   1.169 -1.3861 -0.5894  0.2175
   90MOL   H15728815   7.950   4.073   1.253 -0.2651 -0.1965  0.3579
   90MOL   H15828816   7.736   3.997   1.184  0.0543  0.8971 -1.9657
   90MOL   H15928817   7.700   3.759   1.100 -0.2742  0.4611 -0.1277
   90MOL   H16028818   8.088   3.531   0.975 -0.5963  1.6936  1.6832
   90MOL   H16128819   7.955   3.451   0.889  0.6832 -0.5209  0.7911
   90MOL   C16228820   7.989   3.654   0.826 -0.1989  0.3516  0.0415
   90MOL   C16328821   8.121   3.731   0.807  0.2303 -0.6381  0.0101
   90MOL   C16428822   8.224   3.657   0.740 -0.5835  0.4584 -0.5911
   90MOL   C16528823   8.343   3.726   0.705 -0.1571  0.6365 -0.8355
   90MOL  Cl16628824   0.042   3.645   0.645 -0.0678  0.4459 -0.0456
   90MOL   C16728825   8.349   3.867   0.726  0.0877  0.0211 -0.0968
   90MOL   C16828826   8.253   3.925   0.815 -0.7154  0.0441  0.4046
   90MOL   C16928827   8.145   3.857   0.861  0.0745 -0.9270  0.4605
   90MOL   C17028828   7.934   3.604   0.684  0.6595 -0.1222  0.0037
   90MOL   H17128829   7.915   3.729   0.853 -0.8870 -0.5749  0.7347
   90MOL   H17228830   8.201   3.556   0.707  1.3556 -0.5627  1.0458
   90MOL   H17328831   8.424   3.930   0.681  1.2011 -2.2073 -1.4524
   90MOL   H17428832   8.282   4.023   0.852 -2.4566  1.1747 -1.1317
   90MOL   H17528833   8.077   3.906   0.929  0.7287  0.3450  0.2086
   90MOL   H17628834   7.958   3.677   0.607  2.0838  0.3186  0.8411
   90MOL   H17728835   7.985   3.511   0.658 -2.1536 -1.1958 -1.9460
   90MOL   C17828836   7.777   3.580   0.668  0.1622  0.1871  0.1295
   90MOL   C17928837   7.681   3.658   0.757 -0.4228 -0.0459 -0.2631
   90MOL   C18028838   7.679   3.796   0.756 -0.1865 -0.3728  0.4449
   90MOL   C18128839   7.598   3.866   0.848  0.1811 -0.3836 -0.2668
   90MOL  Cl18228840   7.619   4.035   0.845 -0.2890 -0.1989  0.1547
   90MOL   C18328841   7.501   3.792   0.926 -0.6112  0.1454  0.3200
   90MOL   C18428842   7.501   3.653   0.920 -0.3445 -0.5213 -0.5169
   90MOL   C18528843   7.587   3.588   0.833 -0.0681 -0.8475  0.1496
   90MOL   C18628844   7.732   3.617   0.523  0.2763  0.8450 -0.0827
   90MOL   H18728845   7.754   3.476   0.687 -0.3432  0.5703  1.7165
   90MOL   H18828846   7.749   3.843   0.688 -1.2867 -0.7790 -0.9993
   90MOL   H18928847   7.434   3.850   0.987 -0.4780  3.2906 -2.4099
   90MOL   H19028848   7.419   3.601   0.967 -1.6575  0.9767 -1.0788
   90MOL   H19128849   7.578   3.481   0.832 -1.5628 -0.7646  2.5835
   90MOL   H19228850   7.623   3.618   0.520  0.2494 -0.2536  0.3631
   90MOL   H19328851   7.756   3.722   0.507 -1.6752  1.3159 -0.0462
   90MOL   C19428852   7.787   3.520   0.409  0.3123 -0.5278  0.8605
   90MOL   C19528853   7.741   3.372   0.420  0.4140 -0.3027 -0.0082
   90MOL   C19628854   7.841   3.273   0.437 -0.9606  0.4719 -0.2055
   90MOL   C19728855   7.798   3.139   0.449 -0.3727  0.0488 -0.2250
   90MOL  Cl19828856   7.914   3.010   0.454  0.0751  0.2365  0.0393
   90MOL   C19928857   7.662   3.104   0.437  0.9074 -0.3103 -0.2814
   90MOL   C20028858   7.563   3.208   0.432  0.5107  0.1700  0.3260
   90MOL   C20128859   7.605   3.341   0.415 -0.3155 -0.1764  0.8841
   90MOL   C20228860   7.746   3.583   0.269  0.0144 -0.3007 -0.4392
   90MOL   H20328861   7.894   3.534   0.425  0.6868 -0.4061 -1.5637
   90MOL   H20428862   7.947   3.294   0.439 -1.4060  2.7739  1.2054
   90MOL   H20528863   7.644   2.998   0.426 -0.3558 -0.4608  2.7423
   90MOL   H20628864   7.461   3.174   0.426  0.0369  1.6376 -0.1856
   90MOL   H20728865   7.518   3.405   0.417 -1.4491 -1.6957  2.8432
   90MOL   H20828866   7.800   3.523   0.196  0.9804  1.3468 -1.1212
   90MOL   H20928867   7.638   3.589   0.260 -0.0001 -0.5588 -0.4368
   90MOL   C21028868   7.796   3.729   0.239 -0.1026 -0.9362  0.2484
   90MOL   C21128869   7.943   3.741   0.276  0.3131  0.0549  0.6537
   90MOL   C21228870   7.977   3.854   0.355  0.2179 -0.7159  0.9073
   90MOL   C21328871   8.111   3.873   0.396 -0.9605 -0.2345  0.1010
   90MOL  Cl21428872   8.156   4.010   0.499  0.1878 -0.2079  0.3029
   90MOL   C21528873   8.211   3.776   0.366  0.5099  0.0684  0.3006
   90MOL   C21628874   8.172   3.667   0.290 -0.0717  0.0768  0.9154
   90MOL   C21728875   8.042   3.649   0.235 -0.7785 -0.1222  0.4650
   90MOL   C21828876   7.759   3.763   0.088  0.4736  0.3881 -0.3997
   90MOL   H21928877   7.738   3.793   0.306  0.8578  1.6318 -1.3231
   90MOL   H22028878   7.898   3.921   0.384 -0.0518 -0.4934 -0.3408
   90MOL   H22128879   8.317   3.785   0.386  0.8903 -2.0547 -0.7120
   90MOL   H22228880   8.247   3.597   0.258 -1.5398 -1.0676 -0.1340
   90MOL   H22328881   8.032   3.569   0.163 -2.0751  1.3464 -1.0468
   90MOL   H22428882   7.830   3.707   0.026 -0.2109 -2.1297  1.0389
   90MOL   H22528883   7.656   3.736   0.065  0.5038 -0.8742  0.8851
   90MOL   C22628884   7.777   3.911   0.043  0.3713 -0.0225  0.7030
   90MOL   C22728885   7.808   3.929   8.327 -0.3236 -0.3993 -0.0260
   90MOL   C22828886   7.925   3.994   8.295  1.2728 -0.5324 -0.1136
   90MOL   C22928887   7.947   4.035   8.160  0.1240 -0.2429  0.7285
   90MOL  Cl23028888   8.084   4.126   8.110 -0.1847  0.2872  0.2422
   90MOL   C23128889   7.848   3.999   8.064  0.2493  0.3836  0.5770
   90MOL   C23228890   7.730   3.930   8.098  0.0547  0.5176 -0.4735
   90MOL   C23328891   7.715   3.887   8.231 -0.3693 -0.1950  0.5341
   90MOL   C23428892   7.656   4.003   0.074 -0.5363 -0.1681 -0.3236
   90MOL   H23528893   7.864   3.943   0.101  0.4731  0.9816  0.0087
   90MOL   H23628894   7.998   4.023   8.369 -1.0945  0.0743  2.0533
   90MOL   H23728895   7.865   4.025   7.961  3.3375  1.5990  1.3368
   90MOL   H23828896   7.670   3.887   8.019 -1.8048  0.5577  0.9029
   90MOL   H23928897   7.632   3.823   8.256 -0.8424  0.3727  0.4294
   90MOL   H24028898   7.659   4.079   8.430  0.9016  1.1324  0.9439
   90MOL   H24128899   7.562   3.957   0.043 -1.1424  0.3788  0.6953
   90MOL   C24228900   7.634   4.062   0.212 -0.6148 -0.0593 -0.4792
   90MOL   C24328901   7.751   4.147   0.260  0.1967 -0.0974 -0.0821
   90MOL   C24428902   7.773   4.168   0.400  0.1936  0.7714 -0.4502
   90MOL   C24528903   7.890   4.230   0.450  0.1000  0.2451 -0.3337
   90MOL  Cl24628904   7.916   4.246   0.621  0.2492 -0.2812  0.2557
   90MOL   C24728905   7.987   4.285   0.358  0.0355 -1.0266  0.1874
   90MOL   C24828906   7.969   4.267   0.221  0.3974 -0.2265  0.5497
   90MOL   C24928907   7.848   4.204   0.175 -0.1462 -0.0643  0.4886
   90MOL   C25028908   7.502   4.153   0.209 -0.4935 -0.1276 -0.2510
   90MOL   H25128909   7.623   3.984   0.288  2.2871  0.3888  0.4516
   90MOL   H25228910   7.708   4.130   0.478  1.3513  0.3812  0.3434
   90MOL   H25328911   8.075   4.326   0.405  0.2250 -0.5511 -0.5797
   90MOL   H25428912   8.048   4.295   0.153  1.3040 -0.0111  1.6923
   90MOL   H25528913   7.842   4.192   0.068 -0.9056  0.9842  0.3965
   90MOL   H25628914   7.493   4.192   0.311 -1.1140  2.6102 -1.3236
   90MOL   H25728915   7.525   4.242   0.152 -1.1511 -0.3160 -0.8208
   90MOL   C25828916   7.370   4.081   0.177 -0.5930  0.0909 -0.5468
   90MOL   C25928917   7.344   3.959   0.275 -0.0606  0.4155 -0.0444
   90MOL   C26028918   7.345   3.972   0.416 -0.0883  0.0736  0.4879
   90MOL   C26128919   7.350   3.858   0.499 -0.0117 -0.3967 -0.1956
   90MOL  Cl26228920   7.351   3.867   0.662  0.0171 -0.0889 -0.0394
   90MOL   C26328921   7.335   3.730   0.441  0.2820 -0.0203 -0.3253
   90MOL   C26428922   7.313   3.714   0.300 -0.4183 -0.2388  0.0580
   90MOL   C26528923   7.319   3.832   0.220  0.2855 -0.3849  0.0270
   90MOL   C26628924   7.249   4.183   0.185  0.0391  0.3832 -0.1511
   90MOL   H26728925   7.373   4.042   0.075 -4.3094  0.1792 -0.7746
   90MOL   H26828926   7.352   4.070   0.462  0.4091 -0.4865  1.6219
   90MOL   H26928927   7.328   3.643   0.505 -0.4029 -0.3677 -0.8637
   90MOL   H27028928   7.287   3.619   0.255 -1.1420 -0.2225  0.4352
   90MOL   H27128929   7.283   3.837   0.118 -2.7637 -0.1946  1.0653
   90MOL   H27228930   7.154   4.129   0.185  1.1900 -1.6471  0.5012
   90MOL   H27328931   7.237   4.230   0.283 -1.5494 -1.3292  0.4894
   90MOL   C27428932   7.251   4.296   0.081 -0.0810  0.1983  0.4106
   90MOL   C27528933   7.271   4.250   8.371  0.0296  0.2640  0.3516
   90MOL   C27628934   7.389   4.275   8.309  0.5031  0.2461 -0.2448
   90MOL   C27728935   7.406   4.241   8.172 -0.7456  0.1082 -0.4199
   90MOL  Cl27828936   7.556   4.272   8.094  0.0202 -0.3414 -0.2294
   90MOL   C27928937   7.296   4.196   8.095  0.1059 -0.6907 -0.4740
   90MOL   C28028938   7.177   4.173   8.159  0.1355  0.2117 -0.4772
   90MOL   C28128939   7.165   4.185   8.301 -0.3922  0.0067  0.4292
   90MOL   C28228940   7.125   4.381   0.085 -0.2110  0.2692 -0.7192
   90MOL   H28328941   7.341   4.352   0.104 -0.0656  1.0685 -1.6573
   90MOL   H28428942   7.469   4.332   8.353 -0.4467  0.8354  0.7345
   90MOL   H28528943   7.300   4.197   7.987 -0.2053  1.0393 -0.4822
   90MOL   H28628944   7.092   4.142   8.101 -0.0453 -0.3850  0.1061
   90MOL   H28728945   7.066   4.175   8.342 -1.0167 -0.0587 -1.0643
   90MOL   H28828946   7.109   4.422   8.420  0.5756 -0.4955 -1.1631
   90MOL   H28928947   7.039   4.320   0.113 -0.0914  1.3980  2.2380
   90MOL   C29028948   7.132   4.504   0.179 -0.0795  0.7837 -1.0390
   90MOL   C29128949   7.232   4.604   0.119 -0.1714 -0.8996  0.1459
   90MOL   C29228950   7.362   4.619   0.169  0.4302  0.6340 -0.6857
   90MOL   C29328951   7.452   4.714   0.112  0.4615  0.0580 -0.3400
   90MOL  Cl29428952   7.608   4.758   0.181  0.0535  0.2098  0.2978
   90MOL   C29528953   7.411   4.790   0.003 -0.4638 -0.1447 -0.1537
   90MOL   C29628954   7.295   4.767   8.374 -0.4228 -0.1400  0.1099
   90MOL   C29728955   7.206   4.678   0.005  0.3249 -0.3732 -0.0492
   90MOL   C29828956   6.996   4.581   0.205 -0.1059  0.3396 -0.6107
   90MOL   H29928957   7.173   4.474   0.276 -0.8583 -0.8388 -1.1941
   90MOL   H30028958   7.397   4.552   0.247 -1.0392  0.7392  0.0731
   90MOL   H30128959   7.468   4.869   8.393  0.1788 -0.1541  0.6184
   90MOL   H30228960   7.274   4.823   8.284  1.1149  1.1422  0.5136
   90MOL   H30328961   7.114   4.650   8.391 -0.6648  1.7440  0.5703
   90MOL   H30428962   7.019   4.672   0.260 -2.1069  0.3278  0.2668
   90MOL   H30528963   6.941   4.607   0.115 -0.3855 -0.4409 -0.6682
   90MOL   C30628964   6.901   4.497   0.283 -0.9091  0.4696  0.1579
   90MOL   C30728965   6.955   4.466   0.418 -0.1031 -0.5157 -0.3883
   90MOL   C30828966   6.996   4.337   0.454  0.0143  0.6284  0.4031
   90MOL   C30928967   7.057   4.310   0.578 -0.4411 -0.1790 -0.0203
   90MOL  Cl31028968   7.135   4.157   0.617 -0.0001 -0.5179  0.4635
   90MOL   C31128969   7.076   4.416   0.666 -0.0053 -0.7602 -0.0473
   90MOL   C31228970   7.030   4.542   0.640 -0.1237 -0.4365  0.6475
   90MOL   C31328971   6.967   4.569   0.521  0.2372 -0.1016 -0.1356
   90MOL   C31428972   6.769   4.575   0.302  0.0506  0.1313  0.0772
   90MOL   H31528973   6.894   4.402   0.232 -0.5813  0.9548 -0.7963
   90MOL   H31628974   6.976   4.260   0.381  1.8888 -0.0364  0.5468
   90MOL   H31728975   7.113   4.400   0.766 -1.6880  1.9375  1.0713
   90MOL   H31828976   7.040   4.618   0.717 -2.2681  0.6671 -0.1308
   90MOL   H31928977   6.925   4.667   0.503 -0.5927 -0.4593 -0.1891
   90MOL   H32028978   6.790   4.680   0.319  1.4396  0.0842 -1.2705
   90MOL   H32128979   6.697   4.551   0.223  1.9977 -3.0032 -0.8077
   90MOL   H32228980   6.706   4.531   0.379 -1.1585 -2.1474 -2.1418
   91MOL     C128981   0.349   2.797   6.446 -0.1433  0.5716  0.1165
   91MOL     C228982   0.304   2.925   6.503 -1.0332 -0.2550 -0.3110
   91MOL     C328983   0.358   3.048   6.455  0.1505  0.4331  0.5695
   91MOL     C428984   0.333   3.168   6.532 -0.2998  0.7515 -0.6390
   91MOL    Cl528985   0.416   3.314   6.493  0.3724 -0.0420 -0.1614
   91MOL     C628986   0.230   3.167   6.631 -0.1064 -0.2100  0.2664
   91MOL     C728987   0.177   3.048   6.672 -0.3663 -0.4222 -0.4078
   91MOL     C828988   0.209   2.925   6.610 -0.5506 -0.4582  0.5467
   91MOL     C928989   0.270   2.758   6.326  0.6463 -0.0932  0.0720
   91MOL    H1028990   0.331   2.720   6.521 -0.2320 -0.9366 -1.4126
   91MOL    H1128991   0.420   3.041   6.367  1.7116  0.0934  1.6675
   91MOL    H1228992   0.199   3.264   6.665 -1.3964 -0.4914 -0.0845
   91MOL    H1328993   0.104   3.052   6.752  1.3506  1.7547  1.0859
   91MOL    H1428994   0.152   2.840   6.645 -0.8401 -0.4564  0.0960
   91MOL    H1528995   0.166   2.757   6.360  0.0628  0.1755 -1.6507
   91MOL    H1628996   0.278   2.837   6.251 -1.3559  0.3862  0.3066
   91MOL    H1728997   0.456   2.787   6.428 -0.5951 -2.6903 -1.1172
   91MOL    C1828998   0.289   2.625   6.256  0.2681  0.2017  0.7641
   91MOL    C1928999   0.299   2.504   6.353 -1.3876 -0.8726 -0.2974
   91MOL    C2029000   0.188   2.471   6.433 -0.2538  0.4103  0.3292
   91MOL    C2129001   0.195   2.366   6.521 -0.0316  0.6529  0.0353
   91MOL   Cl2229002   0.066   2.331   6.632  0.2134  0.6493  0.0282
   91MOL    C2329003   0.304   2.279   6.513 -0.7068  0.3185 -0.3902
   91MOL    C2429004   0.410   2.298   6.425  1.0307 -0.1867  0.4935
   91MOL    C2529005   0.415   2.424   6.352  0.9080  0.4293  0.7715
   91MOL    C2629006   0.177   2.610   6.146 -0.6315 -1.2179 -0.0264
   91MOL    H2729007   0.381   2.636   6.199  0.5090 -0.3552  1.0461
   91MOL    H2829008   0.100   2.533   6.427  0.7905  1.6831 -3.1284
   91MOL    H2929009   0.293   2.180   6.555 -0.8718 -0.2404 -1.7288
   91MOL    H3029010   0.471   2.209   6.412 -1.2333 -1.8110  0.6808
   91MOL    H3129011   0.499   2.445   6.287 -0.8612  0.0798 -1.7153
   91MOL    H3229012   0.079   2.590   6.188 -1.6173  0.3331 -1.5111
   91MOL    H3329013   0.162   2.709   6.103 -0.2065  0.0438  2.6452
   91MOL    C3429014   0.203   2.495   6.046 -0.5037 -0.7559  0.0245
   91MOL    C3529015   0.084   2.437   5.981  0.3334  0.0352  0.0486
   91MOL    C3629016   0.005   2.521   5.904  0.6216 -0.4605  0.7875
   91MOL    C3729017   8.326   2.474   5.840  0.3586 -0.4608  0.2116
   91MOL   Cl3829018   8.233   2.577   5.737 -0.3730 -0.2062 -0.2985
   91MOL    C3929019   8.279   2.335   5.851 -0.6833  0.4979  0.5028
   91MOL    C4029020   8.361   2.251   5.926  0.7234  0.0094 -0.2664
   91MOL    C4129021   0.044   2.298   5.990 -0.7599 -0.4718  0.0183
   91MOL    C4229022   0.322   2.521   5.952  0.3045 -0.0144 -0.5442
   91MOL    H4329023   0.236   2.405   6.100  0.3289  0.5134  1.6715
   91MOL    H4429024   0.026   2.627   5.897 -4.2295  0.6740  1.0533
   91MOL    H4529025   8.194   2.300   5.795 -0.0550  1.9710 -1.3751
   91MOL    H4629026   8.333   2.146   5.923  2.3047 -0.3712 -2.5403
   91MOL    H4729027   0.108   2.232   6.046 -1.0994 -1.0874 -0.3149
   91MOL    H4829028   0.314   2.607   5.885  1.0701 -1.7743 -2.9672
   91MOL    H4929029   0.406   2.561   6.008  0.0087 -0.8729  0.5312
   91MOL    C5029030   0.367   2.402   5.857  0.2614  0.8494 -0.6157
   91MOL    C5129031   0.274   2.381   5.738 -0.0518 -0.0608  1.3141
   91MOL    C5229032   0.238   2.486   5.647  0.6114 -0.0204 -0.1060
   91MOL    C5329033   0.154   2.455   5.538 -0.0382  0.9706 -0.1152
   91MOL   Cl5429034   0.105   2.589   5.439 -0.0405 -0.0558 -0.2354
   91MOL    C5529035   0.109   2.324   5.511 -0.0657 -0.1969 -1.0299
   91MOL    C5629036   0.162   2.224   5.595  0.4150 -0.4843 -0.2019
   91MOL    C5729037   0.235   2.251   5.710 -0.7557 -0.3493  0.7422
   91MOL    C5829038   0.515   2.419   5.818  0.2600 -0.6627  0.4845
   91MOL    H5929039   0.361   2.320   5.929 -0.4916  1.2467 -0.2105
   91MOL    H6029040   0.262   2.591   5.661 -2.4688  0.7127  0.0079
   91MOL    H6129041   0.048   2.303   5.424  0.9865 -0.0983 -1.8021
   91MOL    H6229042   0.137   2.120   5.577 -1.4193  0.0532 -0.8994
   91MOL    H6329043   0.266   2.168   5.772 -1.5379 -1.3334 -0.1728
   91MOL    H6429044   0.536   2.360   5.729 -1.0761  0.0756 -0.3304
   91MOL    H6529045   0.538   2.521   5.788  0.9268 -1.3356 -1.3708
   91MOL    C6629046   0.626   2.391   5.920  0.5646  0.2440  0.2188
   91MOL    C6729047   0.627   2.242   5.953  0.7078 -0.2126 -0.0400
   91MOL    C6829048   0.683   2.156   5.858  0.1439 -0.4086 -0.6923
   91MOL    C6929049   0.691   2.022   5.879  0.3884  0.1854 -0.1004
   91MOL   Cl7029050   0.746   1.907   5.755  0.2289  0.1969 -0.0579
   91MOL    C7129051   0.627   1.967   5.995  0.4618  0.5135  0.4613
   91MOL    C7229052   0.572   2.045   6.090  0.8493  0.5405 -0.0123
   91MOL    C7329053   0.578   2.184   6.073  0.7113 -0.5976  0.5525
   91MOL    C7429054   0.766   2.436   5.876 -0.2383  0.5170  0.1599
   91MOL    H7529055   0.613   2.438   6.017 -0.3609  3.3307 -1.3379
   91MOL    H7629056   0.730   2.193   5.769 -1.2337  1.4430 -0.6943
   91MOL    H7729057   0.609   1.861   5.994 -0.1243  0.6172 -2.1646
   91MOL    H7829058   0.514   1.994   6.165  2.4111 -2.2886 -0.6444
   91MOL    H7929059   0.519   2.241   6.142  0.0130 -0.9583  0.2582
   91MOL    H8029060   0.830   2.380   5.944  0.0861 -0.4119 -0.8979
   91MOL    H8129061   0.792   2.395   5.779 -0.7347 -0.2188  0.3376
   91MOL    C8229062   0.796   2.584   5.879  0.3947 -0.7563 -0.2182
   91MOL    C8329063   0.780   2.645   6.019  0.2801  0.3926  0.3650
   91MOL    C8429064   0.856   2.609   6.134  0.5839 -0.5164  0.4829
   91MOL    C8529065   0.848   2.686   6.253  0.4307  0.2253  0.2458
   91MOL   Cl8629066   0.969   2.646   6.375  0.0250  0.0483 -0.1430
   91MOL    C8729067   0.740   2.774   6.270 -0.2340 -0.3866  0.0027
   91MOL    C8829068   0.656   2.804   6.161 -0.3777  0.4698  0.2569
   91MOL    C8929069   0.676   2.742   6.032 -0.9230 -0.6595 -0.5586
   91MOL    C9029070   0.933   2.611   5.814  0.1744  0.2401 -0.1595
   91MOL    H9129071   0.714   2.629   5.823 -0.2108 -1.8538 -0.2369
   91MOL    H9229072   0.929   2.533   6.111  0.5390  0.1795 -2.0228
   91MOL    H9329073   0.723   2.816   6.368 -0.2333  1.6715 -0.8615
   91MOL    H9429074   0.571   2.869   6.173 -0.7193 -0.0088  0.4481
   91MOL    H9529075   0.624   2.785   5.948 -1.5301  0.8282  0.5422
   91MOL    H9629076   1.009   2.596   5.891 -0.7672 -2.4743  0.2820
   91MOL    H9729077   0.946   2.550   5.724  3.7146  0.0691  0.4065
   91MOL    C9829078   0.940   2.753   5.745 -0.1773  0.3872 -0.4054
   91MOL    C9929079   0.935   2.872   5.849  0.0085  0.0401 -0.7403
   91MOL   C10029080   1.016   2.874   5.964  0.0319 -0.1338  0.2808
   91MOL   C10129081   1.013   2.977   6.054 -0.5779  0.5481 -0.2574
   91MOL  Cl10229082   1.115   2.977   6.191 -0.3075 -0.3732  0.0792
   91MOL   C10329083   0.924   3.089   6.031 -0.0231  0.6077 -0.1072
   91MOL   C10429084   0.839   3.085   5.917 -0.5158 -0.7027 -0.0958
   91MOL   C10529085   0.850   2.977   5.826 -0.1153 -0.6252 -1.0662
   91MOL   C10629086   1.065   2.766   5.655 -0.4876 -0.4006  0.1672
   91MOL   H10729087   0.851   2.757   5.682 -0.0501 -1.6736 -0.7707
   91MOL   H10829088   1.081   2.789   5.971  2.8896  2.0626  1.6242
   91MOL   H10929089   0.926   3.167   6.105 -0.4554 -0.8972  1.5307
   91MOL   H11029090   0.774   3.167   5.890  2.1964  1.5154 -0.0916
   91MOL   H11129091   0.782   2.977   5.743 -1.8666  0.2118  0.3410
   91MOL   H11229092   1.157   2.742   5.708 -0.1929  0.1879 -0.0775
   91MOL   H11329093   1.068   2.698   5.570 -1.3194  0.5386 -0.6312
   91MOL   C11429094   1.090   2.908   5.588 -0.2499 -0.2533 -1.1552
   91MOL   C11529095   1.236   2.904   5.528 -0.5188  0.4063  0.0017
   91MOL   C11629096   1.259   2.821   5.416 -0.0511  0.0906  0.3873
   91MOL   C11729097   1.374   2.837   5.337 -0.5135 -0.1875 -0.3432
   91MOL  Cl11829098   1.402   2.742   5.203 -0.1678  0.2912 -0.4063
   91MOL   C11929099   1.464   2.935   5.372  0.1649  0.1339 -0.0398
   91MOL   C12029100   1.437   3.024   5.486  0.1729  1.0001  0.7213
   91MOL   C12129101   1.327   3.003   5.569  0.3686 -0.8061 -0.3499
   91MOL   C12229102   0.975   2.956   5.492  0.6584 -0.4178  0.4972
   91MOL   H12329103   1.094   2.979   5.670  0.9466  0.3849 -1.7503
   91MOL   H12429104   1.180   2.757   5.382  0.5344  0.9570 -2.7683
   91MOL   H12529105   1.556   2.947   5.316  1.0393  0.2416  1.3776
   91MOL   H12629106   1.497   3.111   5.509  1.6391  0.2795 -0.2644
   91MOL   H12729107   1.315   3.071   5.652  3.7319 -0.5570  0.0309
   91MOL   H12829108   0.961   2.878   5.417  0.2508 -0.2131  0.3592
   91MOL   H12929109   0.878   2.948   5.542 -0.0783  0.3276 -0.7999
   91MOL   C13029110   0.988   3.096   5.434 -0.8336  0.3832 -0.5108
   91MOL   C13129111   0.893   3.090   5.318  0.5301 -0.2950  0.0370
   91MOL   C13229112   0.947   3.088   5.187 -0.7125  1.3114 -0.1121
   91MOL   C13329113   0.865   3.078   5.075 -0.1326  0.4003  0.6960
   91MOL  Cl13429114   0.945   3.047   4.922 -0.1060  0.1902  0.3528
   91MOL   C13529115   0.723   3.065   5.088  0.5354  0.2851  0.1726
   91MOL   C13629116   0.668   3.064   5.216 -0.2464 -0.6385  0.2107
   91MOL   C13729117   0.751   3.076   5.329  0.5677  0.0292  0.6329
   91MOL   C13829118   0.957   3.205   5.531 -0.8662  0.4161  0.2525
   91MOL   H13929119   1.090   3.108   5.397 -0.0735 -0.4013  1.3160
   91MOL   H14029120   1.055   3.092   5.182 -0.6741 -0.1692 -0.9440
   91MOL   H14129121   0.659   3.051   5.002  2.0191  0.5699 -0.9871
   91MOL   H14229122   0.562   3.049   5.231 -0.9127  1.9275 -1.6082
   91MOL   H14329123   0.706   3.065   5.426 -0.9364  0.0757 -0.0406
   91MOL   H14429124   0.852   3.199   5.558 -0.9156  1.3772  0.2875
   91MOL   H14529125   1.009   3.171   5.621  0.4298 -1.2045 -1.0519
   91MOL   C14629126   1.007   3.353   5.505 -0.1249 -0.6033  0.3369
   91MOL   C14729127   0.921   3.425   5.405 -0.2946  0.1174 -0.5080
   91MOL   C14829128   0.783   3.404   5.397 -0.7616  0.1268 -0.7017
   91MOL   C14929129   0.705   3.457   5.291  0.1683 -0.0287  0.0223
   91MOL  Cl15029130   0.542   3.396   5.276 -0.0923 -0.0717  0.4875
   91MOL   C15129131   0.750   3.564   5.217  0.1281  0.0413 -0.8173
   91MOL   C15229132   0.890   3.593   5.221 -0.0724  0.4509 -0.4198
   91MOL   C15329133   0.971   3.520   5.313 -0.2273 -0.4052  0.0607
   91MOL   C15429134   1.023   3.427   5.634 -1.0034 -0.3798 -0.3875
   91MOL   H15529135   1.107   3.363   5.462 -2.6310  2.0095 -5.2983
   91MOL   H15629136   0.732   3.328   5.456  0.6914  0.1346  0.6069
   91MOL   H15729137   0.680   3.607   5.147 -1.3523 -1.6282 -0.4097
   91MOL   H15829138   0.918   3.674   5.155 -0.5337  2.0392  1.2840
   91MOL   H15929139   1.077   3.538   5.308 -0.2597 -0.0508  0.6054
   91MOL   H16029140   0.940   3.401   5.699 -0.2489 -0.1624  0.6739
   91MOL   H16129141   1.112   3.384   5.679  0.1328  2.0762 -0.2393
   91MOL   C16229142   1.047   3.582   5.644  0.6652  0.0962  0.5290
   91MOL   C16329143   1.027   3.645   5.782  0.0966 -0.4046  0.4237
   91MOL   C16429144   1.104   3.599   5.893  0.0549  0.2732  0.3800
   91MOL   C16529145   1.086   3.651   6.023 -0.0568  1.2274 -0.3413
   91MOL  Cl16629146   1.177   3.593   6.162 -0.4197 -0.5406  0.2963
   91MOL   C16729147   0.983   3.750   6.038 -0.8803  0.5871  0.0464
   91MOL   C16829148   0.904   3.795   5.928  0.1203 -0.1119  0.2790
   91MOL   C16929149   0.926   3.741   5.801  0.1360  0.0034  0.1770
   91MOL   C17029150   1.186   3.628   5.586  0.6996 -0.3566  0.2778
   91MOL   H17129151   0.967   3.626   5.585  0.4353  0.9650  1.4750
   91MOL   H17229152   1.169   3.513   5.886  0.4740  0.6256 -0.0587
   91MOL   H17329153   0.969   3.786   6.138 -0.6062 -0.3834  0.4335
   91MOL   H17429154   0.820   3.860   5.943 -1.8430 -2.2457 -1.0517
   91MOL   H17529155   0.853   3.765   5.725 -0.8484 -1.8117  0.5049
   91MOL   H17629156   1.265   3.586   5.649  1.4586 -1.9901 -1.7108
   91MOL   H17729157   1.201   3.587   5.487  1.8834  1.6304 -0.3979
   91MOL   C17829158   1.200   3.784   5.580 -0.7747  0.6981  0.4325
   91MOL   C17929159   1.347   3.825   5.612 -0.2507  0.2849 -0.0271
   91MOL   C18029160   1.450   3.845   5.513  0.3420  0.1818 -0.4695
   91MOL   C18129161   1.585   3.880   5.563 -0.4160  0.2441 -0.3071
   91MOL  Cl18229162   1.718   3.890   5.456  0.3031  0.0164  0.2170
   91MOL   C18329163   1.608   3.892   5.700 -1.0563 -0.7129  0.9426
   91MOL   C18429164   1.506   3.874   5.795 -0.6107  0.0960 -0.5587
   91MOL   C18529165   1.379   3.848   5.750 -0.2266 -0.1675  0.0720
   91MOL   C18629166   1.168   3.827   5.436  0.3855  0.1241  0.8198
   91MOL   H18729167   1.139   3.842   5.649 -0.0835 -0.3227  1.9303
   91MOL   H18829168   1.446   3.825   5.407 -1.4969  0.2653 -0.4296
   91MOL   H18929169   1.707   3.910   5.739 -1.0158  0.6837  0.2327
   91MOL   H19029170   1.526   3.893   5.899 -1.4498 -0.0675 -0.3623
   91MOL   H19129171   1.298   3.848   5.821 -0.3397 -0.2411 -0.0554
   91MOL   H19229172   1.238   3.782   5.366  1.0974  2.3029  0.0746
   91MOL   H19329173   1.070   3.786   5.415 -0.1487  1.2157  1.1100
   91MOL   C19429174   1.150   3.982   5.422  0.1510  0.3984 -0.5405
   91MOL   C19529175   1.187   4.015   5.277 -0.4753 -0.5528  0.0133
   91MOL   C19629176   1.096   3.999   5.173  0.0240 -0.1458 -0.1399
   91MOL   C19729177   1.126   4.059   5.045 -0.3943 -0.3500  0.2469
   91MOL  Cl19829178   1.019   4.037   4.917 -0.4326  0.2616  0.0200
   91MOL   C19929179   1.256   4.108   5.010 -0.0073  0.5780 -0.9753
   91MOL   C20029180   1.345   4.119   5.118  0.3131 -0.0223  0.2193
   91MOL   C20129181   1.311   4.076   5.247 -0.0145 -0.0711  0.1763
   91MOL   C20229182   1.018   4.038   5.479 -0.4082 -0.4350 -0.6244
   91MOL   H20329183   1.232   4.027   5.478  0.3354 -1.9149  1.0677
   91MOL   H20429184   1.006   3.945   5.199 -0.6692  1.3653  0.6536
   91MOL   H20529185   1.281   4.147   4.912  2.4576 -0.8417 -0.9534
   91MOL   H20629186   1.439   4.172   5.107  0.5795 -0.7419 -1.0788
   91MOL   H20729187   1.376   4.101   5.329  0.7687  0.0861 -0.4887
   91MOL   H20829188   0.934   4.038   5.410  0.6926 -2.0721 -2.0233
   91MOL   H20929189   0.974   3.969   5.551 -0.8205 -1.0377 -1.4398
   91MOL   C21029190   1.032   4.171   5.550 -0.1508 -0.5355 -0.1237
   91MOL   C21129191   1.074   4.288   5.461  0.1328 -1.0563  0.6622
   91MOL   C21229192   1.191   4.362   5.487 -0.5647 -0.2241 -0.6974
   91MOL   C21329193   1.231   4.464   5.394  0.1642 -0.0787  0.0093
   91MOL  Cl21429194   1.384   4.543   5.419  0.3056  0.1002 -0.2126
   91MOL   C21529195   1.150   4.487   5.276 -1.2000 -0.1950  0.1304
   91MOL   C21629196   1.033   4.416   5.255 -0.2711  0.4801 -0.1450
   91MOL   C21729197   0.995   4.322   5.352  0.7210 -0.0839 -0.0470
   91MOL   C21829198   0.903   4.205   5.628  0.0151 -0.6222 -0.1979
   91MOL   H21929199   1.108   4.157   5.627 -0.0381  1.4813  0.1535
   91MOL   H22029200   1.251   4.347   5.575 -0.8345 -0.6735 -0.5907
   91MOL   H22129201   1.176   4.551   5.193  1.5648 -0.5751  0.6568
   91MOL   H22229202   0.974   4.430   5.166  1.3049 -0.4809 -1.3652
   91MOL   H22329203   0.899   4.273   5.341 -0.3324  1.5318  1.6781
   91MOL   H22429204   0.831   4.217   5.547 -0.2946  0.8469  0.2739
   91MOL   H22529205   0.872   4.121   5.689  1.6477 -0.0336  1.4969
   91MOL   C22629206   0.904   4.335   5.717 -0.0913 -0.6659  0.0552
   91MOL   C22729207   0.786   4.426   5.680 -0.4035  0.3740 -0.7816
   91MOL   C22829208   0.659   4.393   5.716  0.1306 -0.4369  0.3669
   91MOL   C22929209   0.547   4.473   5.668  1.2977  1.0349 -0.4140
   91MOL  Cl23029210   0.378   4.429   5.709  0.0595 -0.1940  0.3524
   91MOL   C23129211   0.566   4.581   5.580 -0.2222  0.0330 -0.5263
   91MOL   C23229212   0.699   4.625   5.554  1.2314 -0.6665 -0.3886
   91MOL   C23329213   0.807   4.540   5.598 -0.8152 -0.6632 -0.3158
   91MOL   C23429214   0.915   4.308   5.872 -0.5107  0.7290 -0.1247
   91MOL   H23529215   0.991   4.395   5.690 -0.1316  0.7798  2.9719
   91MOL   H23629216   0.658   4.311   5.786  1.0284 -1.0417 -0.3142
   91MOL   H23729217   0.478   4.638   5.554 -1.6875 -0.7214  2.5959
   91MOL   H23829218   0.727   4.713   5.497  0.4910 -0.1063  0.1050
   91MOL   H23929219   0.909   4.556   5.568 -1.6703  1.5900 -2.2189
   91MOL   H24029220   0.923   4.408   5.915 -1.3229 -0.4405  2.8861
   91MOL   H24129221   0.821   4.263   5.903 -0.7465  0.0363 -1.8088
   91MOL   C24229222   1.023   4.211   5.921 -0.0498  0.0045 -0.6645
   91MOL   C24329223   1.168   4.257   5.892  0.1530 -0.0703 -0.3115
   91MOL   C24429224   1.214   4.388   5.899  0.4908 -0.3425 -0.1220
   91MOL   C24529225   1.345   4.421   5.866  0.8532  0.5581  0.0817
   91MOL  Cl24629226   1.401   4.577   5.872 -0.0574  0.0149  0.1091
   91MOL   C24729227   1.433   4.322   5.826 -0.3503  0.0876 -0.0023
   91MOL   C24829228   1.395   4.185   5.829 -0.3418 -0.0330  1.2445
   91MOL   C24929229   1.264   4.155   5.865  0.3340 -0.0929 -0.0432
   91MOL   C25029230   1.001   4.173   6.073  0.2874 -0.2070 -1.2423
   91MOL   H25129231   1.009   4.114   5.873  1.8347  0.1183 -1.5127
   91MOL   H25229232   1.148   4.462   5.942 -0.9994 -0.7144 -1.7261
   91MOL   H25329233   1.532   4.352   5.796 -0.2367  1.0634  1.3040
   91MOL   H25429234   1.474   4.113   5.816  0.6776  1.2388  0.2052
   91MOL   H25529235   1.221   4.056   5.864 -0.8835  0.4295 -0.1046
   91MOL   H25629236   0.900   4.137   6.090  0.3447  0.5310  0.7723
   91MOL   H25729237   1.065   4.086   6.086 -2.4559 -2.3203 -1.4145
   91MOL   C25829238   1.041   4.278   6.184 -0.9421  0.0927  0.0916
   91MOL   C25929239   0.961   4.405   6.184 -0.1572 -0.3384  0.3161
   91MOL   C26029240   0.824   4.398   6.166  0.8260  0.6219  0.3698
   91MOL   C26129241   0.751   4.520   6.178  0.7167 -0.7602  0.3589
   91MOL  Cl26229242   0.581   4.508   6.142  0.0514 -0.2153 -0.1249
   91MOL   C26329243   0.809   4.641   6.217 -1.0723  0.3877 -0.2961
   91MOL   C26429244   0.948   4.650   6.229  0.1299 -0.4885 -0.1277
   91MOL   C26529245   1.025   4.535   6.212 -0.3814  0.3569  0.6534
   91MOL   C26629246   1.017   4.214   6.321 -0.1917 -0.0631  0.1929
   91MOL   H26729247   1.145   4.303   6.164 -0.9069 -0.3115 -0.2242
   91MOL   H26829248   0.781   4.305   6.134  1.6662 -0.7084  2.9695
   91MOL   H26929249   0.757   4.735   6.216 -1.0099  0.4208 -0.4060
   91MOL   H27029250   0.998   4.744   6.249  0.1598 -0.4035 -0.5813
   91MOL   H27129251   1.129   4.544   6.239  0.0719 -1.4885 -0.3270
   91MOL   H27229252   1.033   4.292   6.395  0.6123  0.7105 -0.7906
   91MOL   H27329253   0.908   4.207   6.322 -0.2848  0.9244 -1.5374
   91MOL   C27429254   1.062   4.070   6.363  0.0352 -0.6895  0.1115
   91MOL   C27529255   1.214   4.071   6.357  0.0046  0.5099  0.0086
   91MOL   C27629256   1.277   3.967   6.285 -0.0188  0.3917 -0.0862
   91MOL   C27729257   1.420   3.959   6.295  0.1141  0.1544  0.3113
   91MOL  Cl27829258   1.506   3.832   6.217  0.1593  0.0628 -0.3813
   91MOL   C27929259   1.493   4.058   6.366 -0.4576 -0.4701 -0.0030
   91MOL   C28029260   1.426   4.173   6.415 -0.2671  0.0647  0.4282
   91MOL   C28129261   1.286   4.174   6.413  0.2477 -0.1140 -0.7117
   91MOL   C28229262   1.005   4.029   6.508  0.3152  0.5673  0.3746
   91MOL   H28329263   1.033   3.994   6.290 -1.4793 -0.3273  0.3192
   91MOL   H28429264   1.231   3.881   6.238  0.9091 -1.8313  2.9004
   91MOL   H28529265   1.600   4.051   6.364 -0.5208 -1.0885 -1.4643
   91MOL   H28629266   1.477   4.256   6.461  0.3220 -0.3802  0.5874
   91MOL   H28729267   1.231   4.251   6.465 -0.4710 -0.9306 -0.2604
   91MOL   H28829268   1.027   3.929   6.547 -2.0109 -0.7871 -1.6050
   91MOL   H28929269   1.044   4.100   6.581 -1.5661 -0.1685  2.1359
   91MOL   C29029270   0.842   4.034   6.520  0.7838  0.0626  0.0437
   91MOL   C29129271   0.780   3.935   6.424  0.3145 -0.2052  0.3537
   91MOL   C29229272   0.828   3.803   6.412 -0.5683  0.6857  0.3943
   91MOL   C29329273   0.752   3.703   6.349 -0.1836  0.9082  0.1449
   91MOL  Cl29429274   0.808   3.538   6.339  0.1712 -0.2416  0.0915
   91MOL   C29529275   0.626   3.737   6.297 -0.7050  0.0552  0.0896
   91MOL   C29629276   0.580   3.870   6.316 -0.7537 -0.1456 -0.6860
   91MOL   C29729277   0.655   3.969   6.375 -0.8778  0.6152  0.0124
   91MOL   C29829278   0.792   4.022   6.665  0.2149 -0.9398  1.2639
   91MOL   H29929279   0.803   4.130   6.486  2.0702  0.2887 -0.8518
   91MOL   H30029280   0.918   3.765   6.459 -1.7089 -1.8984  0.5176
   91MOL   H30129281   0.568   3.675   6.230 -0.0835 -0.4456  0.0139
   91MOL   H30229282   0.481   3.893   6.279 -1.1908 -1.5921 -0.4540
   91MOL   H30329283   0.609   4.067   6.382 -2.1070 -0.0092  0.8790
   91MOL   H30429284   0.683   4.017   6.659  0.0431  1.3641  2.0098
   91MOL   H30529285   0.818   3.925   6.707  1.3595 -0.8760  0.7059
   91MOL   C30629286   0.828   4.133   6.765 -0.2296 -0.5793  0.8336
   91MOL   C30729287   0.826   4.270   6.692  0.0742  0.3550 -0.8783
   91MOL   C30829288   0.944   4.353   6.687  0.3347 -0.2539 -0.7687
   91MOL   C30929289   0.951   4.469   6.616  0.1747  0.5750  0.1742
   91MOL  Cl31029290   1.100   4.542   6.598  0.2242  0.2326  0.2783
   91MOL   C31129291   0.836   4.519   6.551  0.5640  0.3064 -0.1529
   91MOL   C31229292   0.717   4.442   6.558 -0.2049 -0.0965  0.7544
   91MOL   C31329293   0.710   4.324   6.632 -0.5767 -0.2069  0.8569
   91MOL   C31429294   0.734   4.130   6.886  0.0776  0.3756 -0.5922
   91MOL   H31529295   0.929   4.114   6.799 -0.0416 -1.1905 -0.0587
   91MOL   H31629296   1.035   4.315   6.732  0.0257 -1.4491 -1.1244
   91MOL   H31729297   0.837   4.619   6.509 -2.3247  0.8758  0.9783
   91MOL   H31829298   0.625   4.477   6.514 -0.0100 -1.0703 -0.4723
   91MOL   H31929299   0.614   4.277   6.647 -0.6960 -0.4394 -0.5730
   91MOL   H32029300   0.635   4.146   6.846  0.3858 -0.9792 -1.9554
   91MOL   H32129301   0.732   4.035   6.939  1.8876  0.6732  0.0857
   91MOL   H32229302   0.747   4.217   6.951 -1.8298 -0.1071  0.4451
   92MOL     C129303   4.452   5.088   0.627 -0.3153  0.7786  0.5159
   92MOL     C229304   4.321   5.129   0.686 -0.7978 -0.0049 -0.7632
   92MOL     C329305   4.254   5.240   0.628 -0.5064  0.2200 -0.1436
   92MOL     C429306   4.129   5.278   0.675  0.3106  0.3011  0.3400
   92MOL    Cl529307   4.056   5.421   0.615 -0.0364 -0.1539  0.1309
   92MOL     C629308   4.080   5.211   0.788  0.2880 -0.3978 -0.2117
   92MOL     C729309   4.150   5.111   0.857 -0.3248 -0.5678 -0.0113
   92MOL     C829310   4.277   5.071   0.803  0.1862  0.2038 -0.0736
   92MOL     C929311   4.569   5.193   0.657 -0.2041  0.2005  0.1412
   92MOL    H1029312   4.440   5.079   0.519  0.3050  1.9392  0.3411
   92MOL    H1129313   4.293   5.280   0.536  1.2248 -1.4039 -0.1527
   92MOL    H1229314   3.983   5.231   0.830  0.1690 -0.5578 -0.4093
   92MOL    H1329315   4.106   5.062   0.943 -0.1051  0.6036  0.7786
   92MOL    H1429316   4.331   4.990   0.849 -0.0569  1.2365  2.1369
   92MOL    H1529317   4.559   5.287   0.603 -0.5302 -0.6422 -1.3014
   92MOL    H1629318   4.573   5.214   0.764 -0.8100 -0.3312  0.2805
   92MOL    H1729319   4.477   4.988   0.662  1.1095  0.2939 -1.7779
   92MOL    C1829320   4.706   5.132   0.637  0.2278  0.4934 -0.5443
   92MOL    C1929321   4.727   5.089   0.491 -0.0569  0.5118 -0.1169
   92MOL    C2029322   4.765   4.957   0.458 -0.0961 -0.4040 -0.1777
   92MOL    C2129323   4.796   4.921   0.323 -0.3388 -0.2183  0.1503
   92MOL   Cl2229324   4.849   4.759   0.304 -0.1633 -0.0359 -0.1973
   92MOL    C2329325   4.784   5.019   0.221 -0.0243  0.2883  0.2781
   92MOL    C2429326   4.736   5.144   0.252 -0.0201 -0.4423 -0.3655
   92MOL    C2529327   4.716   5.184   0.388 -0.0437 -0.2173  0.5406
   92MOL    C2629328   4.816   5.221   0.690 -0.0334 -0.3274 -0.0793
   92MOL    H2729329   4.711   5.040   0.694 -0.3438  2.1107  2.2048
   92MOL    H2829330   4.782   4.874   0.526 -0.9273 -1.4730 -1.2467
   92MOL    H2929331   4.797   4.991   0.118  0.2253  0.0838  0.3651
   92MOL    H3029332   4.707   5.213   0.173  0.1805  1.0467  0.8356
   92MOL    H3129333   4.684   5.286   0.404  1.6201  0.6211 -1.2408
   92MOL    H3229334   4.906   5.210   0.630  1.1440  1.6120  1.2938
   92MOL    H3329335   4.782   5.323   0.678  0.8880 -0.1170 -1.0063
   92MOL    C3429336   4.843   5.209   0.846 -0.2613  0.3004 -0.4071
   92MOL    C3529337   4.943   5.094   0.870  0.0531 -0.6293  0.3603
   92MOL    C3629338   5.065   5.108   0.802 -0.4281  0.8745  0.2236
   92MOL    C3729339   5.163   5.006   0.831  0.3699 -1.2963  0.6995
   92MOL   Cl3829340   5.310   5.016   0.741 -0.1322  0.0073 -0.2404
   92MOL    C3929341   5.140   4.904   0.927 -1.5238  0.3850  0.1711
   92MOL    C4029342   5.024   4.900   0.996 -0.0827 -0.3784  0.1142
   92MOL    C4129343   4.923   4.996   0.966  0.2829  0.6485 -0.4872
   92MOL    C4229344   4.887   5.338   0.911 -0.4329 -0.3465 -0.3342
   92MOL    H4329345   4.754   5.180   0.903  1.5501 -1.3046  1.6997
   92MOL    H4429346   5.086   5.190   0.735 -0.4076  0.2147 -0.5797
   92MOL    H4529347   5.219   4.832   0.940  0.6817  2.3112 -1.9412
   92MOL    H4629348   5.000   4.826   1.071 -0.9723 -0.1266  0.0815
   92MOL    H4729349   4.836   4.998   1.029  0.3361  0.7720 -0.4185
   92MOL    H4829350   4.948   5.301   0.993 -0.3820 -1.4787 -0.8727
   92MOL    H4929351   4.959   5.393   0.852 -1.4564  2.2020  0.6967
   92MOL    C5029352   4.767   5.421   0.962 -0.4455  0.4157  0.7986
   92MOL    C5129353   4.722   5.389   1.107 -0.7146  0.0873 -0.0328
   92MOL    C5229354   4.812   5.399   1.212  0.2075  0.1190  0.0957
   92MOL    C5329355   4.770   5.382   1.345  0.0515  0.0690 -0.2846
   92MOL   Cl5429356   4.885   5.382   1.477 -0.5722  0.2582  0.3031
   92MOL    C5529357   4.636   5.354   1.374 -0.7660  0.8412  0.5868
   92MOL    C5629358   4.544   5.356   1.267  0.3124  0.5506 -0.8026
   92MOL    C5729359   4.586   5.373   1.134  0.3351  0.3541 -0.3163
   92MOL    C5829360   4.810   5.574   0.951 -0.4006  0.2879 -0.5735
   92MOL    H5929361   4.691   5.403   0.885  1.1198  0.6079 -0.8044
   92MOL    H6029362   4.914   5.417   1.181 -0.3225  1.4670 -0.8885
   92MOL    H6129363   4.601   5.344   1.475  0.3802  0.0843  0.9180
   92MOL    H6229364   4.440   5.338   1.286 -0.3381  1.3620 -3.3962
   92MOL    H6329365   4.520   5.377   1.048 -1.7310  2.9622  1.2903
   92MOL    H6429366   4.730   5.628   1.001 -1.1985 -0.9349 -0.5055
   92MOL    H6529367   4.903   5.591   1.004 -0.9928  2.3331 -0.1471
   92MOL    C6629368   4.810   5.639   0.811 -0.4149  0.1056  0.3150
   92MOL    C6729369   4.677   5.628   0.735  0.0628 -0.0248  0.4385
   92MOL    C6829370   4.554   5.674   0.792  0.0977 -0.4741 -0.1911
   92MOL    C6929371   4.435   5.657   0.712  0.4973 -0.0013  0.0831
   92MOL   Cl7029372   4.276   5.693   0.780 -0.3355  0.0244  0.2434
   92MOL    C7129373   4.439   5.602   0.583  0.5688  0.4229  0.4592
   92MOL    C7229374   4.561   5.561   0.527 -0.2493  0.1911  0.8376
   92MOL    C7329375   4.679   5.578   0.603  0.1682 -0.2278  0.2667
   92MOL    C7429376   4.861   5.788   0.813 -0.0021  0.1619  0.2241
   92MOL    H7529377   4.883   5.601   0.739 -0.8178  0.4021 -0.2598
   92MOL    H7629378   4.555   5.716   0.891  1.2815 -0.5197 -0.1657
   92MOL    H7729379   4.349   5.599   0.523 -0.0930 -1.5088  1.4972
   92MOL    H7829380   4.561   5.507   0.433 -0.8608  1.1634  0.2734
   92MOL    H7929381   4.774   5.542   0.565  0.5161  0.5442  0.3822
   92MOL    H8029382   4.836   5.833   0.717 -2.7187  0.8475  1.2378
   92MOL    H8129383   4.801   5.835   0.891 -0.9094 -0.3820 -0.1395
   92MOL    C8229384   5.016   5.825   0.832 -0.3778  0.2191 -0.6609
   92MOL    C8329385   5.047   5.954   0.759 -0.2866  0.6841 -0.1474
   92MOL    C8429386   5.001   6.082   0.804 -0.9510  0.5367  0.2945
   92MOL    C8529387   5.028   6.198   0.731 -0.5195  0.0806 -0.3415
   92MOL   Cl8629388   4.961   6.347   0.778 -0.4203  0.0123  0.1972
   92MOL    C8729389   5.097   6.189   0.608 -0.2063  0.2679 -0.1128
   92MOL    C8829390   5.148   6.065   0.563 -0.1441 -0.1590 -0.2710
   92MOL    C8929391   5.122   5.948   0.638  0.4017  0.0984 -0.6815
   92MOL    C9029392   5.057   5.824   0.984  0.1129  0.4126  0.1756
   92MOL    H9129393   5.056   5.738   0.781 -0.6604 -0.1387 -0.2763
   92MOL    H9229394   4.947   6.092   0.898 -1.8502 -0.6157 -0.0949
   92MOL    H9329395   5.121   6.272   0.543 -3.5739  0.1324 -1.6614
   92MOL    H9429396   5.208   6.059   0.473  1.7391  0.7368  0.8752
   92MOL    H9529397   5.155   5.849   0.611  0.6584 -0.2447  0.8162
   92MOL    H9629398   5.051   5.925   1.024 -0.9039  1.0223 -1.4825
   92MOL    H9729399   4.979   5.767   1.033 -1.1317  1.8485 -0.0990
   92MOL    C9829400   5.194   5.758   1.012 -0.0623  0.1477  0.4285
   92MOL    C9929401   5.234   5.752   1.159  0.2811  0.5279  0.0419
   92MOL   C10029402   5.346   5.829   1.199 -1.0847  0.4531  0.2911
   92MOL   C10129403   5.381   5.827   1.337  0.0674 -0.0865 -0.1417
   92MOL  Cl10229404   5.526   5.905   1.397 -0.1300  0.0375 -0.0834
   92MOL   C10329405   5.303   5.747   1.426 -0.3995 -0.3519  0.1700
   92MOL   C10429406   5.184   5.684   1.381 -0.1143  0.1279  0.3160
   92MOL   C10529407   5.146   5.682   1.248 -0.6050  1.1426  0.7819
   92MOL   C10629408   5.214   5.619   0.945 -0.2685  0.5884 -0.5112
   92MOL   H10729409   5.265   5.828   0.966 -0.3889  2.0474  2.7134
   92MOL   H10829410   5.414   5.877   1.130 -0.9952  0.2099  0.2092
   92MOL   H10929411   5.326   5.756   1.531  0.3435 -2.9684  0.2507
   92MOL   H11029412   5.113   5.638   1.447  0.2435 -2.8352 -1.2946
   92MOL   H11129413   5.055   5.630   1.222 -0.9243  2.1079 -0.0640
   92MOL   H11229414   5.243   5.545   1.019 -0.3516  1.0023 -0.0600
   92MOL   H11329415   5.120   5.571   0.918 -0.3950  1.7680 -2.2594
   92MOL   C11429416   5.316   5.604   0.831  0.4338 -0.6323 -0.0413
   92MOL   C11529417   5.454   5.657   0.864  0.9451  1.1435  0.4366
   92MOL   C11629418   5.527   5.607   0.973 -0.7843 -0.8232 -0.0678
   92MOL   C11729419   5.639   5.678   1.016  0.2827 -0.1086 -0.1753
   92MOL  Cl11829420   5.722   5.606   1.152 -0.2349  0.0009 -0.1641
   92MOL   C11929421   5.686   5.794   0.957  0.4848 -0.0045  0.4394
   92MOL   C12029422   5.612   5.845   0.853  0.1188 -0.5560 -0.0812
   92MOL   C12129423   5.507   5.769   0.801 -0.3833 -0.0006  0.3572
   92MOL   C12229424   5.312   5.461   0.765  0.5433 -0.2882 -0.3451
   92MOL   H12329425   5.288   5.670   0.748  1.3270 -0.7472 -0.4498
   92MOL   H12429426   5.503   5.516   1.027  2.7022 -1.8245 -0.0914
   92MOL   H12529427   5.768   5.854   0.993  1.6592 -0.1863 -1.8790
   92MOL   H12629428   5.642   5.936   0.803 -1.1490  0.1524  0.4468
   92MOL   H12729429   5.460   5.797   0.708 -0.8951 -0.7868  0.3774
   92MOL   H12829430   5.370   5.386   0.819  1.8714  0.3933 -0.8242
   92MOL   H12929431   5.216   5.415   0.790 -0.2367  0.5762 -1.7006
   92MOL   C13029432   5.343   5.453   0.613  0.8909 -0.3341 -0.2509
   92MOL   C13129433   5.238   5.520   0.528 -0.1290 -0.1075 -0.8540
   92MOL   C13229434   5.252   5.652   0.473 -0.1079 -0.0790  0.5084
   92MOL   C13329435   5.154   5.698   0.384 -0.7014  0.3913 -0.0032
   92MOL  Cl13429436   5.188   5.841   0.301  0.2236  0.2626  0.4435
   92MOL   C13529437   5.037   5.620   0.354  0.3520  0.4179  0.2943
   92MOL   C13629438   5.027   5.493   0.414 -0.8094 -0.3471 -0.3673
   92MOL   C13729439   5.121   5.444   0.499 -0.0834 -0.5479  0.4378
   92MOL   C13829440   5.488   5.491   0.567  0.3214 -0.6695  0.0837
   92MOL   H13929441   5.335   5.347   0.589 -1.1354  0.2164 -2.2566
   92MOL   H14029442   5.342   5.710   0.486  0.1406 -0.1088 -1.0239
   92MOL   H14129443   4.958   5.662   0.294  1.4909  2.5463  0.2178
   92MOL   H14229444   4.951   5.427   0.376 -0.1108 -0.9100 -0.7903
   92MOL   H14329445   5.108   5.345   0.540 -0.4616 -0.2464  1.0582
   92MOL   H14429446   5.488   5.596   0.593 -2.2773 -0.6891  0.2419
   92MOL   H14529447   5.558   5.435   0.630  1.1632 -1.1883 -1.2933
   92MOL   C14629448   5.521   5.477   0.412  0.2885 -0.7308  0.2278
   92MOL   C14729449   5.623   5.593   0.376 -0.0956 -0.2582  0.4179
   92MOL   C14829450   5.590   5.687   0.272  0.8934 -0.0961 -1.0135
   92MOL   C14929451   5.681   5.796   0.234 -0.6898  0.1850  0.1197
   92MOL  Cl15029452   5.640   5.916   0.121  0.1744 -0.1412 -0.0324
   92MOL   C15129453   5.808   5.800   0.294  0.2425  0.0432 -0.1657
   92MOL   C15229454   5.839   5.703   0.396  0.0475 -0.2002  0.3667
   92MOL   C15329455   5.751   5.603   0.436  0.5952  0.0204 -0.4740
   92MOL   C15429456   5.577   5.335   0.380  0.1382 -0.3951 -0.4953
   92MOL   H15529457   5.429   5.494   0.356  0.0454 -1.9802  0.2141
   92MOL   H15629458   5.496   5.681   0.220  0.2747  0.9112 -0.0287
   92MOL   H15729459   5.877   5.874   0.256  1.6725 -0.9644  0.4080
   92MOL   H15829460   5.936   5.689   0.443  0.7176 -2.9371 -1.6787
   92MOL   H15929461   5.768   5.536   0.520 -1.3761  1.3687  1.0677
   92MOL   H16029462   5.612   5.340   0.277  0.4213  4.2781 -0.2920
   92MOL   H16129463   5.656   5.322   0.453  1.2852 -0.0038 -1.6535
   92MOL   C16229464   5.483   5.201   0.389  0.7572 -0.6287 -0.1750
   92MOL   C16329465   5.344   5.209   0.319 -0.7733 -0.4242 -0.2357
   92MOL   C16429466   5.338   5.273   0.196 -0.4401  0.1139  0.0006
   92MOL   C16529467   5.213   5.300   0.137  0.5332  0.3366  0.7171
   92MOL  Cl16629468   5.193   5.385   8.423 -0.2673  0.0437  0.0631
   92MOL   C16729469   5.096   5.243   0.197  0.5612 -0.7889  0.4320
   92MOL   C16829470   5.106   5.167   0.310  0.1852  0.0474  0.3971
   92MOL   C16929471   5.230   5.144   0.376  0.3634  0.4172 -0.0306
   92MOL   C17029472   5.556   5.079   0.328  0.1063 -0.0710 -0.3068
   92MOL   H17129473   5.467   5.179   0.495  1.6651 -1.8128 -0.2720
   92MOL   H17229474   5.430   5.314   0.157 -0.0014  1.5394  2.3907
   92MOL   H17329475   4.998   5.252   0.151  1.1122 -0.9301 -0.7670
   92MOL   H17429476   5.019   5.111   0.338  1.0047 -0.9043  1.0831
   92MOL   H17529477   5.245   5.088   0.467 -1.8873  0.1185  0.1722
   92MOL   H17629478   5.484   4.998   0.341  1.2398 -0.9945  0.3004
   92MOL   H17729479   5.564   5.099   0.221  0.6719 -2.4628 -0.7495
   92MOL   C17829480   5.692   5.040   0.395  0.7936  0.0032 -0.4263
   92MOL   C17929481   5.674   4.948   0.519 -0.2779  0.4133  0.6687
   92MOL   C18029482   5.702   4.989   0.654 -0.1668  0.1995  0.0038
   92MOL   C18129483   5.674   4.895   0.758 -0.4130  0.3462 -0.3208
   92MOL  Cl18229484   5.715   4.942   0.918 -0.3317  0.3608 -0.2549
   92MOL   C18329485   5.625   4.767   0.734 -0.3350  0.2851  0.9021
   92MOL   C18429486   5.616   4.724   0.602 -0.3386 -0.2148 -0.4866
   92MOL   C18529487   5.638   4.816   0.497  0.6096 -0.6913  0.2415
   92MOL   C18629488   5.775   4.976   0.290 -0.8980 -0.1192  0.2862
   92MOL   H18729489   5.739   5.126   0.442 -0.3605 -1.7546  4.2978
   92MOL   H18829490   5.724   5.090   0.685  0.1738 -0.0491  0.5951
   92MOL   H18929491   5.619   4.689   0.809 -0.3781 -0.3782  0.2248
   92MOL   H19029492   5.589   4.622   0.579  1.7176 -0.4056 -2.2194
   92MOL   H19129493   5.610   4.795   0.395 -1.4354  1.5367  0.3139
   92MOL   H19229494   5.853   4.919   0.340 -1.2509  1.1090  2.2831
   92MOL   H19329495   5.718   4.902   0.235 -1.5727  0.4370  0.2337
   92MOL   C19429496   5.844   5.079   0.200 -0.1360 -0.4595 -0.1820
   92MOL   C19529497   5.930   5.184   0.276 -0.7411  0.5393 -0.0665
   92MOL   C19629498   6.022   5.144   0.378  0.3273  0.0914  0.3802
   92MOL   C19729499   6.106   5.242   0.435 -0.2753 -0.0246 -0.0041
   92MOL  Cl19829500   6.198   5.201   0.575 -0.0845  0.0335 -0.0942
   92MOL   C19929501   6.088   5.377   0.399 -0.2071 -0.6577 -0.3654
   92MOL   C20029502   5.997   5.415   0.294 -0.2336 -0.1216 -0.0791
   92MOL   C20129503   5.913   5.316   0.241 -0.2928  0.0046  0.3475
   92MOL   C20229504   5.922   5.016   0.080 -0.0388 -0.2702  0.0990
   92MOL   H20329505   5.767   5.140   0.153  1.7541  1.5174 -0.8348
   92MOL   H20429506   6.031   5.044   0.417  0.5023 -0.3052 -0.6777
   92MOL   H20529507   6.146   5.455   0.444 -0.3814 -1.4026  1.1702
   92MOL   H20629508   5.990   5.518   0.260 -0.7411  0.5271  1.9481
   92MOL   H20729509   5.851   5.339   0.156 -0.6394  1.1095  0.8861
   92MOL   H20829510   5.991   5.081   0.027 -1.6016 -0.2355 -1.9931
   92MOL   H20929511   5.988   4.942   0.127  0.5769 -0.8566 -1.6414
   92MOL   C21029512   5.841   4.933   8.416  0.3980 -0.0593 -0.2123
   92MOL   C21129513   5.711   5.008   8.377 -0.2349 -0.6963  0.3699
   92MOL   C21229514   5.588   4.960   8.415  0.9937 -0.3607 -0.0083
   92MOL   C21329515   5.464   5.020   8.385 -0.7681  0.3172  0.6962
   92MOL  Cl21429516   5.323   4.943   8.434 -0.3210  0.2373 -0.1660
   92MOL   C21529517   5.470   5.144   8.321  0.6226 -0.0605  0.4668
   92MOL   C21629518   5.594   5.207   8.296 -0.4357  0.1199  0.1051
   92MOL   C21729519   5.712   5.135   8.315  0.0948  0.5744 -0.3662
   92MOL   C21829520   5.935   4.884   8.304  0.2279  0.5782  0.3621
   92MOL   H21929521   5.803   4.848   0.038  0.7771  1.4191  2.2947
   92MOL   H22029522   5.573   4.862   0.025 -2.6058  0.6325  1.1789
   92MOL   H22129523   5.381   5.204   8.309 -0.1341 -1.1208  0.6376
   92MOL   H22229524   5.585   5.309   8.261 -1.6899 -0.3365 -0.9031
   92MOL   H22329525   5.809   5.180   8.299  0.5960 -0.7039 -1.0107
   92MOL   H22429526   5.942   4.968   8.234 -1.6771  0.4471 -0.0195
   92MOL   H22529527   6.039   4.864   8.330  0.8062 -0.7270 -2.6959
   92MOL   C22629528   5.894   4.756   8.227 -0.0755  0.0690  0.2005
   92MOL   C22729529   5.761   4.765   8.144 -0.1956  0.0958  0.2769
   92MOL   C22829530   5.736   4.880   8.061  0.6992 -0.3105 -0.4086
   92MOL   C22929531   5.613   4.883   7.987 -0.0331 -0.4672  0.0003
   92MOL  Cl23029532   5.598   4.996   7.855  0.1303 -0.1712 -0.1718
   92MOL   C23129533   5.515   4.789   8.013  0.0125  0.7304  0.2237
   92MOL   C23229534   5.539   4.684   8.107 -0.0887 -0.0839  0.4466
   92MOL   C23329535   5.665   4.677   8.170  0.8417 -0.0056 -1.0604
   92MOL   C23429536   6.012   4.703   8.141 -0.4045 -0.5634  0.3009
   92MOL   H23529537   5.881   4.679   8.302 -2.5880  0.8141  0.5530
   92MOL   H23629538   5.816   4.951   8.047  1.7609 -1.6925 -1.4329
   92MOL   H23729539   5.417   4.794   7.968  0.4219  0.4731 -0.7263
   92MOL   H23829540   5.467   4.605   8.121 -1.3856  0.5486 -2.2528
   92MOL   H23929541   5.667   4.594   8.239 -0.2246  1.0113  0.2207
   92MOL   H24029542   5.978   4.636   8.063  1.4605 -0.6451 -0.4715
   92MOL   H24129543   6.064   4.785   8.091  1.1537 -0.6392  1.7113
   92MOL   C24229544   6.131   4.632   8.213 -0.2497  0.6451  0.1419
   92MOL   C24329545   6.087   4.491   8.255 -0.1323  0.1893 -0.2148
   92MOL   C24429546   6.077   4.456   8.388  0.9465  0.6020 -0.3579
   92MOL   C24529547   6.029   4.335   8.425  0.0197  0.8855  1.0398
   92MOL  Cl24629548   6.019   4.277   0.153 -0.1692  0.3146  0.1535
   92MOL   C24729549   5.996   4.243   8.326  0.4807 -0.3531  0.5369
   92MOL   C24829550   6.003   4.274   8.189  0.5206 -0.2844 -0.8756
   92MOL   C24929551   6.059   4.401   8.151 -0.3160  0.5808  0.0194
   92MOL   C25029552   6.264   4.633   8.143 -0.5772 -0.4483  0.5234
   92MOL   H25129553   6.142   4.679   8.311 -1.1823 -0.3151  0.7258
   92MOL   H25229554   6.103   4.520   0.037 -3.3863  0.6357  1.0925
   92MOL   H25329555   5.958   4.145   8.350 -2.7385  0.5258 -0.6947
   92MOL   H25429556   5.968   4.204   8.114 -1.8019  2.0793 -2.0691
   92MOL   H25529557   6.063   4.429   8.047 -0.2199 -1.7165 -0.6008
   92MOL   H25629558   6.249   4.585   8.046 -0.4025 -1.9353  1.2214
   92MOL   H25729559   6.284   4.736   8.115 -2.9990 -0.4297 -1.2561
   92MOL   C25829560   6.390   4.573   8.219 -0.2768  0.3652 -0.0562
   92MOL   C25929561   6.466   4.469   8.149 -0.2144  0.1052 -0.4256
   92MOL   C26029562   6.415   4.341   8.119 -0.8136  0.7014  0.1877
   92MOL   C26129563   6.485   4.248   8.040  0.4214  0.7660 -0.0784
   92MOL  Cl26229564   6.398   4.117   7.974 -0.3662  0.6349 -0.0450
   92MOL   C26329565   6.613   4.284   8.002 -0.4501 -0.3228  0.1852
   92MOL   C26429566   6.680   4.403   8.047  0.3715  0.2506  0.6854
   92MOL   C26529567   6.599   4.500   8.108 -0.1510 -0.1910  0.4881
   92MOL   C26629568   6.475   4.698   8.281  0.1362 -0.0627  0.2177
   92MOL   H26729569   6.346   4.530   8.309 -1.8294 -1.6005 -1.7132
   92MOL   H26829570   6.320   4.308   8.159 -0.4118 -0.9561 -0.1944
   92MOL   H26929571   6.658   4.207   7.941 -1.4868 -1.2504  0.5778
   92MOL   H27029572   6.778   4.434   8.014 -0.1051  0.2414 -0.7862
   92MOL   H27129573   6.647   4.593   8.135  1.7427 -1.7817  2.9546
   92MOL   H27229574   6.558   4.647   8.330  0.4250 -0.3160 -0.5289
   92MOL   H27329575   6.513   4.758   8.198  2.1821 -1.0646  0.3904
   92MOL   C27429576   6.414   4.800   8.382 -0.3381  0.0165 -0.2939
   92MOL   C27529577   6.358   4.732   0.067  0.6040  0.2988  0.8948
   92MOL   C27629578   6.429   4.626   0.125 -0.5956  0.5833 -0.6068
   92MOL   C27729579   6.375   4.547   0.228  0.0708 -0.1032 -0.2657
   92MOL  Cl27829580   6.455   4.407   0.288  0.2069 -0.2289  0.0039
   92MOL   C27929581   6.265   4.593   0.297  0.3625  0.0317  0.1151
   92MOL   C28029582   6.191   4.702   0.251 -0.9632  1.0320 -0.6705
   92MOL   C28129583   6.236   4.765   0.134 -0.2149 -0.2065  0.0126
   92MOL   C28229584   6.516   4.909   8.419 -0.1085  0.7113 -0.4129
   92MOL   H28329585   6.324   4.843   8.338  0.8636  1.4094 -1.4587
   92MOL   H28429586   6.529   4.594   0.098 -1.8356 -2.8124 -1.5005
   92MOL   H28529587   6.216   4.537   0.375 -0.6615 -1.6668 -1.7009
   92MOL   H28629588   6.090   4.716   0.287 -0.3135  2.6688  0.5953
   92MOL   H28729589   6.178   4.851   0.104 -0.0703 -0.4568 -0.9909
   92MOL   H28829590   6.606   4.871   0.033 -1.4645 -1.7277  0.2895
   92MOL   H28929591   6.552   4.944   8.322  0.4660  0.2982 -0.3514
   92MOL   C29029592   6.462   5.030   0.053  0.1215 -0.1894  0.4657
   92MOL   C29129593   6.577   5.093   0.130 -0.6767 -0.8060  1.2669
   92MOL   C29229594   6.674   5.187   0.077 -0.4120 -0.3164 -0.2577
   92MOL   C29329595   6.763   5.250   0.162  0.2148 -0.7296 -0.9409
   92MOL  Cl29429596   6.885   5.351   0.106 -0.7287 -0.4134  0.0270
   92MOL   C29529597   6.764   5.221   0.300 -0.4555  0.4124 -0.3208
   92MOL   C29629598   6.683   5.120   0.352 -0.0422 -0.4746 -0.2270
   92MOL   C29729599   6.592   5.051   0.263 -0.3299  0.0093  0.3861
   92MOL   C29829600   6.386   5.129   8.398  0.9857 -0.2905  0.0604
   92MOL   H29929601   6.385   5.007   0.126 -0.8336 -0.3644 -0.5690
   92MOL   H30029602   6.670   5.205   8.406 -2.7045 -0.1482 -0.1649
   92MOL   H30129603   6.832   5.265   0.371  2.1916  0.2000 -2.6440
   92MOL   H30229604   6.694   5.105   0.458 -0.6228  0.3639 -0.0427
   92MOL   H30329605   6.526   4.973   0.296 -1.5447  1.4624  1.4577
   92MOL   H30429606   6.459   5.178   8.333 -0.6205 -0.7093 -2.0850
   92MOL   H30529607   6.331   5.066   8.328  2.2121 -0.8283 -0.4334
   92MOL   C30629608   6.296   5.239   0.040 -0.9535  0.1029 -0.5085
   92MOL   C30729609   6.395   5.352   0.101 -0.3249 -0.2277  0.1943
   92MOL   C30829610   6.416   5.349   0.235 -0.5160 -0.1862  0.1612
   92MOL   C30929611   6.496   5.447   0.297  0.1240 -0.5653  0.1795
   92MOL  Cl31029612   6.522   5.443   0.465 -0.1930 -0.4882  0.4284
   92MOL   C31129613   6.551   5.545   0.217  0.0735  0.6000  0.8423
   92MOL   C31229614   6.532   5.546   0.075  0.4859 -0.0837 -0.1814
   92MOL   C31329615   6.455   5.447   0.018  0.2781 -0.2026 -0.3039
   92MOL   C31429616   6.198   5.308   8.388 -0.0577  0.2477 -0.0116
   92MOL   H31529617   6.238   5.197   0.122  0.6412  0.9887  1.1279
   92MOL   H31629618   6.366   5.273   0.293  0.8913 -1.2541  0.0125
   92MOL   H31729619   6.606   5.621   0.269  3.4447 -0.4418 -1.0710
   92MOL   H31829620   6.557   5.635   0.019  0.4746 -0.2741 -0.4936
   92MOL   H31929621   6.430   5.450   8.348 -1.9349 -1.3925  0.1438
   92MOL   H32029622   6.138   5.370   0.019 -0.8956 -2.0189  1.3834
   92MOL   H32129623   6.241   5.367   8.306  0.8299 -3.4735 -2.3648
   92MOL   H32229624   6.132   5.231   8.347  0.2736 -0.7792  1.3428
   93MOL     C129625   1.744   2.337   2.065  0.5471  0.6164  0.1645
   93MOL     C229626   1.654   2.216   2.051 -0.0613 -0.0502 -0.4589
   93MOL     C329627   1.549   2.224   1.959  0.1771 -0.0201  0.3675
   93MOL     C429628   1.450   2.121   1.950  0.2865  0.0417  0.3928
   93MOL    Cl529629   1.327   2.129   1.826  0.9909  0.1399 -0.2622
   93MOL     C629630   1.456   2.008   2.037 -0.4856 -0.5093  0.1017
   93MOL     C729631   1.555   2.010   2.139 -0.3506 -0.0354  0.7116
   93MOL     C829632   1.655   2.110   2.138 -0.1073 -0.1793 -0.0668
   93MOL     C929633   1.671   2.464   2.102  0.1723 -0.4576  0.6073
   93MOL    H1029634   1.793   2.351   1.968  0.8963 -3.8341 -0.3840
   93MOL    H1129635   1.537   2.313   1.898  0.3319  0.2161  0.6775
   93MOL    H1229636   1.374   1.939   2.041 -0.3104 -0.7249  0.0035
   93MOL    H1329637   1.563   1.933   2.215  0.3111  0.5515  1.2410
   93MOL    H1429638   1.725   2.102   2.220  1.2958  2.5724 -0.9180
   93MOL    H1529639   1.625   2.502   2.011  1.4747  0.8024  0.4458
   93MOL    H1629640   1.600   2.438   2.180 -0.7228 -0.1413 -0.1034
   93MOL    H1729641   1.831   2.321   2.127 -0.2674 -3.3035  0.3970
   93MOL    C1829642   1.770   2.575   2.150 -0.4698 -1.1007  0.2687
   93MOL    C1929643   1.900   2.586   2.063  0.3534  0.3380  0.2786
   93MOL    C2029644   1.903   2.646   1.941  0.4648 -0.6117 -0.5652
   93MOL    C2129645   2.014   2.634   1.860 -0.5956  0.1378  0.1384
   93MOL   Cl2229646   2.017   2.712   1.710  0.1518  0.3598 -0.3585
   93MOL    C2329647   2.130   2.577   1.905 -0.3343  0.0391  0.2296
   93MOL    C2429648   2.134   2.526   2.034 -0.5715 -0.2576 -0.2988
   93MOL    C2529649   2.019   2.528   2.117  0.0720  0.2771 -0.0087
   93MOL    C2629650   1.696   2.707   2.171 -0.5664 -0.9799  0.1344
   93MOL    H2729651   1.803   2.548   2.250 -1.2724 -4.3977 -0.2866
   93MOL    H2829652   1.815   2.702   1.913  0.0540 -1.5767 -1.2232
   93MOL    H2929653   2.220   2.594   1.847 -0.4756 -1.0937 -0.3248
   93MOL    H3029654   2.232   2.503   2.075  0.3172 -0.2064 -2.3689
   93MOL    H3129655   2.025   2.496   2.220  1.6175  0.6289  0.0305
   93MOL    H3229656   1.767   2.788   2.189  1.2407 -2.3469 -0.7325
   93MOL    H3329657   1.650   2.734   2.076  1.5474 -2.2716 -1.2867
   93MOL    C3429658   1.591   2.716   2.282  0.5051  0.5176  0.6477
   93MOL    C3529659   1.654   2.723   2.417  0.3441 -0.3074  0.1905
   93MOL    C3629660   1.673   2.598   2.482  0.0536 -0.2152  0.3019
   93MOL    C3729661   1.724   2.600   2.613 -0.4741  0.3371  0.1289
   93MOL   Cl3829662   1.750   2.447   2.694 -0.2179  0.0918  0.8528
   93MOL    C3929663   1.763   2.724   2.668  0.4880 -0.6477 -0.2839
   93MOL    C4029664   1.744   2.843   2.597  0.3081 -0.0299 -0.1335
   93MOL    C4129665   1.691   2.846   2.475  0.6669 -0.7877  0.3826
   93MOL    C4229666   1.503   2.839   2.252 -0.8842 -0.1418  0.2666
   93MOL    H4329667   1.524   2.631   2.287  0.8875  0.1232 -0.9782
   93MOL    H4429668   1.635   2.510   2.434 -0.3852  1.3380 -2.2943
   93MOL    H4529669   1.810   2.727   2.765  0.3194  0.4758 -0.2337
   93MOL    H4629670   1.774   2.931   2.652  1.2044  0.5752 -1.5584
   93MOL    H4729671   1.668   2.942   2.433 -3.0407 -1.4992  0.5814
   93MOL    H4829672   1.442   2.857   2.341 -2.4080 -0.6282 -0.6664
   93MOL    H4929673   1.570   2.923   2.237 -1.4773  0.1317 -0.9001
   93MOL    C5029674   1.414   2.822   2.129 -0.2474  0.6923  0.1846
   93MOL    C5129675   1.339   2.693   2.122 -0.2377 -0.2215 -0.4014
   93MOL    C5229676   1.263   2.647   2.227 -0.2082 -0.1153  0.0443
   93MOL    C5329677   1.181   2.533   2.210  0.0085 -0.2184 -0.4572
   93MOL   Cl5429678   1.077   2.479   2.333 -0.1002 -0.0602  0.0045
   93MOL    C5529679   1.187   2.457   2.094  0.3917  0.1293  0.1349
   93MOL    C5629680   1.279   2.489   1.993  0.7833  0.3547 -0.2364
   93MOL    C5729681   1.348   2.607   2.005 -0.2214  0.3197  0.2516
   93MOL    C5829682   1.313   2.933   2.110  0.3598  0.2828 -0.7917
   93MOL    H5929683   1.473   2.819   2.038 -0.9949 -0.9722 -0.2572
   93MOL    H6029684   1.262   2.703   2.320 -1.9721  1.5691 -0.9404
   93MOL    H6129685   1.122   2.372   2.085  0.4875  0.1362 -0.6137
   93MOL    H6229686   1.282   2.430   1.902  0.5655  2.3133 -1.5524
   93MOL    H6329687   1.426   2.618   1.932  1.0584  0.8690  1.6841
   93MOL    H6429688   1.240   2.911   2.032 -0.0427 -0.1751 -0.2901
   93MOL    H6529689   1.253   2.932   2.200  1.8747 -0.5548  0.2379
   93MOL    C6629690   1.363   3.074   2.081 -0.4981  0.8232 -0.8434
   93MOL    C6729691   1.443   3.092   1.949  0.0106  0.0604  0.3050
   93MOL    C6829692   1.382   3.106   1.827 -0.3362 -0.2082  0.2471
   93MOL    C6929693   1.451   3.148   1.713  0.0395  0.4162  0.0979
   93MOL   Cl7029694   1.370   3.197   1.569 -0.2756  0.3714 -0.1113
   93MOL    C7129695   1.593   3.165   1.718  0.0690 -0.0095  0.3656
   93MOL    C7229696   1.656   3.142   1.844 -0.2839  0.7540  0.0682
   93MOL    C7329697   1.581   3.111   1.959 -0.1088 -0.1617  0.6720
   93MOL    C7429698   1.256   3.187   2.095 -0.1021  0.2529 -0.6936
   93MOL    H7529699   1.425   3.107   2.165 -0.9810 -0.0659 -0.1310
   93MOL    H7629700   1.276   3.094   1.810 -0.5724  1.5364  0.3629
   93MOL    H7729701   1.651   3.201   1.634  1.2005  0.1755  1.1982
   93MOL    H7829702   1.764   3.152   1.851 -0.1313 -0.0509 -1.0445
   93MOL    H7929703   1.627   3.096   2.055 -0.4061 -1.0480  0.6828
   93MOL    H8029704   1.296   3.285   2.068 -0.1689  0.5052  0.1036
   93MOL    H8129705   1.184   3.162   2.017  0.5083 -0.6414 -0.9702
   93MOL    C8229706   1.184   3.196   2.230  0.0202  0.1288 -0.0040
   93MOL    C8329707   1.279   3.223   2.340 -0.4489 -0.1234  0.3848
   93MOL    C8429708   1.349   3.346   2.323 -0.3479  0.0707  0.2447
   93MOL    C8529709   1.457   3.372   2.412 -0.4478 -0.3199 -0.5586
   93MOL   Cl8629710   1.530   3.522   2.406  0.0184  0.3598 -0.0969
   93MOL    C8729711   1.495   3.273   2.508  0.3731  0.1522  0.6430
   93MOL    C8829712   1.418   3.156   2.527 -0.0673 -0.3945  0.0192
   93MOL    C8929713   1.311   3.126   2.440 -0.0432  0.5089  0.5478
   93MOL    C9029714   1.051   3.279   2.255  0.6123  0.1648 -0.4965
   93MOL    H9129715   1.143   3.096   2.246 -0.1239  0.1432 -0.2750
   93MOL    H9229716   1.335   3.422   2.248 -2.0662  0.1025  0.5789
   93MOL    H9329717   1.556   3.317   2.586 -0.6187  0.5697  1.2000
   93MOL    H9429718   1.436   3.097   2.616  0.3534 -0.0693  0.1494
   93MOL    H9529719   1.260   3.031   2.438 -1.0061  0.9896  1.5369
   93MOL    H9629720   1.009   3.245   2.349  3.0571  0.0803  0.6026
   93MOL    H9729721   1.081   3.383   2.271  1.6771 -0.5315  2.2528
   93MOL    C9829722   0.944   3.260   2.145  0.4413 -0.1390  0.2591
   93MOL    C9929723   0.915   3.112   2.125  0.9206 -0.0587  0.4339
   93MOL   C10029724   0.965   3.050   2.011 -0.2698  0.2229 -0.6867
   93MOL   C10129725   0.974   2.906   1.996  0.9577 -0.2569 -0.1658
   93MOL  Cl10229726   1.026   2.823   1.855 -0.4783  0.3681  0.1460
   93MOL   C10329727   0.919   2.829   2.097  1.4930  0.5087 -0.1466
   93MOL   C10429728   0.864   2.892   2.210  0.0582  0.0881  0.6443
   93MOL   C10529729   0.866   3.032   2.228  0.1686 -0.4558 -0.3532
   93MOL   C10629730   0.819   3.347   2.159 -0.6488  0.0304  0.2698
   93MOL   H10729731   1.006   3.295   2.063  1.0198 -3.3787 -0.7524
   93MOL   H10829732   0.997   3.109   1.926 -0.4657  0.9850 -0.2397
   93MOL   H10929733   0.918   2.721   2.096 -1.2991  0.4777  0.3993
   93MOL   H11029734   0.833   2.836   2.297 -3.4069  1.7188  0.5517
   93MOL   H11129735   0.831   3.069   2.323 -2.2412 -3.5798  0.0630
   93MOL   H11229736   0.759   3.312   2.244 -1.9917 -1.9717 -1.4360
   93MOL   H11329737   0.842   3.451   2.180 -1.3586  0.5657 -1.5637
   93MOL   C11429738   0.737   3.347   2.029  0.0560 -0.5857  0.3517
   93MOL   C11529739   0.592   3.401   2.056  0.3684 -0.1260 -0.6661
   93MOL   C11629740   0.563   3.532   2.105 -0.3901 -0.4747  0.0431
   93MOL   C11729741   0.433   3.577   2.123 -0.9422  1.1638 -0.1848
   93MOL  Cl11829742   0.414   3.740   2.168  0.0566 -0.4502 -0.1337
   93MOL   C11929743   0.329   3.494   2.080  0.7325  0.4727  0.5282
   93MOL   C12029744   0.348   3.362   2.046 -0.0185  0.5007 -0.5861
   93MOL   C12129745   0.481   3.316   2.028  0.2646  0.0051  0.6667
   93MOL   C12229746   0.798   3.434   1.916 -0.3591 -0.3728 -0.2428
   93MOL   H12329747   0.731   3.248   1.982  2.5065 -0.0274 -1.2794
   93MOL   H12429748   0.649   3.593   2.125 -0.3796 -0.0603 -1.2555
   93MOL   H12529749   0.232   3.533   2.108  0.2259  0.8777 -1.7076
   93MOL   H12629750   0.261   3.299   2.030  0.4193 -0.5059  0.9174
   93MOL   H12729751   0.496   3.214   1.997  0.6577 -0.0382  1.0011
   93MOL   H12829752   0.770   3.539   1.920  0.4125 -0.0404 -2.6643
   93MOL   H12929753   0.906   3.418   1.920 -0.5233 -0.9959  3.7467
   93MOL   C13029754   0.756   3.395   1.775  0.3350  0.1672 -0.3674
   93MOL   C13129755   0.759   3.505   1.675 -0.2258 -0.3466  0.2958
   93MOL   C13229756   0.644   3.543   1.604 -0.2880 -0.4808  0.8112
   93MOL   C13329757   0.646   3.650   1.511 -0.6330 -0.0770  0.2677
   93MOL  Cl13429758   0.514   3.668   1.408 -0.3865  0.4160 -0.1520
   93MOL   C13529759   0.763   3.721   1.490  0.0056 -0.2677 -0.6720
   93MOL   C13629760   0.876   3.683   1.556  0.3121  0.1932 -0.7063
   93MOL   C13729761   0.879   3.582   1.648  0.2621  0.6470  0.0103
   93MOL   C13829762   0.842   3.274   1.720 -0.2398 -0.3252 -0.2463
   93MOL   H13929763   0.656   3.355   1.788 -0.0561  1.3822  0.4352
   93MOL   H14029764   0.549   3.495   1.618 -0.5761 -0.8273 -1.9713
   93MOL   H14129765   0.769   3.803   1.420  2.8146 -1.4486 -1.9174
   93MOL   H14229766   0.965   3.740   1.534  0.5257  0.1222 -0.0506
   93MOL   H14329767   0.976   3.559   1.691 -0.1063  1.9725  1.5646
   93MOL   H14429768   0.940   3.308   1.685 -0.4673  2.4012  1.6572
   93MOL   H14529769   0.872   3.208   1.802  0.2299 -1.1449 -1.0620
   93MOL   C14629770   0.777   3.182   1.605 -0.1595  0.9378  0.2951
   93MOL   C14729771   0.659   3.112   1.661  1.1055  0.6862 -0.2267
   93MOL   C14829772   0.679   2.983   1.720 -0.4770  0.3270  0.8316
   93MOL   C14929773   0.584   2.915   1.789 -0.3938  0.9164  0.1756
   93MOL  Cl15029774   0.620   2.766   1.855 -0.4725  0.1174 -0.3458
   93MOL   C15129775   0.457   2.969   1.801  0.1174  0.3401 -0.4285
   93MOL   C15229776   0.428   3.088   1.735 -0.6883 -0.8259 -0.1018
   93MOL   C15329777   0.530   3.162   1.666  0.6619  0.6013  0.8261
   93MOL   C15429778   0.763   3.247   1.471 -0.2094  0.5129 -0.3978
   93MOL   H15529779   0.857   3.110   1.586 -0.4517  0.3522  1.2584
   93MOL   H15629780   0.780   2.944   1.713 -1.7171 -2.5609 -2.7390
   93MOL   H15729781   0.390   2.908   1.860  1.2038 -1.7604 -1.3136
   93MOL   H15829782   0.330   3.130   1.754 -0.6764 -1.0555  0.4730
   93MOL   H15929783   0.511   3.252   1.609  0.8887 -0.9165 -1.7430
   93MOL   H16029784   0.689   3.327   1.480 -0.1761  0.4531  0.4197
   93MOL   H16129785   0.859   3.294   1.453 -0.6882  0.9042 -2.1047
   93MOL   C16229786   0.721   3.151   1.359 -0.2374  0.0618  0.5409
   93MOL   C16329787   0.586   3.190   1.298  0.2012  0.3498 -0.4044
   93MOL   C16429788   0.502   3.083   1.263  0.2363 -0.3594  0.0794
   93MOL   C16529789   0.371   3.110   1.211  0.2830  0.1910  0.0069
   93MOL  Cl16629790   0.269   2.975   1.167  0.5407 -0.2116 -0.0358
   93MOL   C16729791   0.329   3.237   1.189 -0.5132  0.0479  0.3339
   93MOL   C16829792   0.417   3.346   1.221  0.5879  1.0273 -0.0044
   93MOL   C16929793   0.542   3.323   1.279  0.2394 -0.0464  0.3176
   93MOL   C17029794   0.835   3.156   1.250 -0.1807  0.0830  0.8245
   93MOL   H17129795   0.713   3.046   1.388 -1.1823 -0.1837 -0.5732
   93MOL   H17229796   0.527   2.978   1.271 -1.0726 -0.6256  1.0282
   93MOL   H17329797   0.228   3.248   1.152 -1.5108 -1.7250  2.4440
   93MOL   H17429798   0.395   3.451   1.212 -2.2536  0.7601  3.2243
   93MOL   H17529799   0.595   3.415   1.301  1.0846 -0.5070  0.2298
   93MOL   H17629800   0.784   3.137   1.156  2.3609 -1.1997 -0.3365
   93MOL   H17729801   0.875   3.255   1.231 -0.9414  0.3496  0.5921
   93MOL   C17829802   0.961   3.057   1.280 -0.3236 -0.0662 -0.8907
   93MOL   C17929803   0.918   2.904   1.306 -0.4071 -0.4747  0.1532
   93MOL   C18029804   0.952   2.843   1.426  0.4180  0.6281  0.0686
   93MOL   C18129805   0.897   2.711   1.460 -0.1456 -0.5469  0.7028
   93MOL  Cl18229806   0.950   2.618   1.598  0.0470  0.1338  0.0463
   93MOL   C18329807   0.804   2.656   1.372  0.1799  0.2760 -0.3928
   93MOL   C18429808   0.766   2.721   1.253 -0.1119 -0.4650 -0.1478
   93MOL   C18529809   0.824   2.843   1.217 -0.4468 -0.5894  0.0907
   93MOL   C18629810   1.061   3.073   1.166  0.4100  0.1759  0.6947
   93MOL   H18729811   1.011   3.083   1.373  0.3895 -2.3076 -0.6027
   93MOL   H18829812   1.012   2.881   1.507 -1.8055 -0.9875  2.5705
   93MOL   H18929813   0.768   2.556   1.390 -2.3550  1.1070 -0.6307
   93MOL   H19029814   0.689   2.682   1.188 -1.5505  0.5397  0.9117
   93MOL   H19129815   0.783   2.895   1.131 -2.2225  0.2634  1.4146
   93MOL   H19229816   0.999   3.084   1.078  2.2017 -0.4712 -0.6762
   93MOL   H19329817   1.119   3.165   1.173 -0.4644  0.6700  1.4842
   93MOL   C19429818   1.160   2.957   1.150  0.0601 -0.3685  0.1372
   93MOL   C19529819   1.239   2.977   1.021 -0.7084  0.0811 -0.1264
   93MOL   C19629820   1.323   3.092   0.994 -0.4315  0.0960  0.2642
   93MOL   C19729821   1.382   3.105   0.865 -0.6077  0.1779 -0.4493
   93MOL  Cl19829822   1.501   3.239   0.842 -0.1358 -0.1072  0.3370
   93MOL   C19929823   1.361   3.003   0.767  0.5928  0.2864  0.8632
   93MOL   C20029824   1.283   2.882   0.800 -0.5936  0.3110 -0.5788
   93MOL   C20129825   1.230   2.868   0.927  0.7771 -0.6706  0.1833
   93MOL   C20229826   1.261   2.952   1.268  0.0726 -0.0971 -0.7324
   93MOL   H20329827   1.102   2.865   1.144  1.2588 -1.0321 -1.7200
   93MOL   H20429828   1.325   3.173   1.065 -0.6636 -1.8135  2.5113
   93MOL   H20529829   1.420   3.021   0.678  0.2541 -0.2090  0.5343
   93MOL   H20629830   1.271   2.801   0.729  2.1889 -0.7047  0.0466
   93MOL   H20729831   1.170   2.784   0.958 -0.8339  0.3149 -0.2129
   93MOL   H20829832   1.321   3.043   1.268 -0.9839  0.6491  2.3050
   93MOL   H20929833   1.219   2.957   1.368 -0.0928  2.4107 -0.8970
   93MOL   C21029834   1.351   2.827   1.281 -0.1082  0.0917  0.2674
   93MOL   C21129835   1.474   2.861   1.367  0.1094 -0.0655  0.0740
   93MOL   C21229836   1.480   2.836   1.504 -0.1872  0.4198 -0.3051
   93MOL   C21329837   1.597   2.850   1.577 -0.1647 -0.1872  0.1784
   93MOL  Cl21429838   1.595   2.807   1.744 -0.4248 -0.0010  0.2367
   93MOL   C21529839   1.705   2.916   1.521 -0.9557 -0.1336 -0.2057
   93MOL   C21629840   1.707   2.948   1.384  0.2469  0.7475  0.0682
   93MOL   C21729841   1.593   2.915   1.311 -0.3327  0.1825  0.0104
   93MOL   C21829842   1.290   2.692   1.326 -0.4859 -0.2159 -0.3822
   93MOL   H21929843   1.400   2.812   1.185 -1.0113 -2.2565  0.1555
   93MOL   H22029844   1.402   2.792   1.565  0.8034 -0.0777  0.6182
   93MOL   H22129845   1.796   2.923   1.580 -0.0549 -0.6394 -1.5153
   93MOL   H22229846   1.788   2.999   1.334 -1.4608  1.4342 -2.0503
   93MOL   H22329847   1.590   2.934   1.205  0.7611  1.1909  0.1421
   93MOL   H22429848   1.283   2.677   1.434  0.1686  0.3806 -0.2463
   93MOL   H22529849   1.187   2.701   1.291 -0.6408 -1.8444 -0.3608
   93MOL   C22629850   1.373   2.568   1.280  0.7448  0.0927  0.3269
   93MOL   C22729851   1.331   2.443   1.362  0.0542 -0.4690 -0.7403
   93MOL   C22829852   1.438   2.368   1.418  0.4850 -0.2764 -0.1466
   93MOL   C22929853   1.409   2.248   1.481 -0.4093  1.0242  1.0318
   93MOL  Cl23029854   1.540   2.146   1.519 -0.0834  0.1119  0.1821
   93MOL   C23129855   1.272   2.206   1.503  0.2973 -0.0945 -0.4333
   93MOL   C23229856   1.163   2.285   1.457  0.0412  0.1639  0.0381
   93MOL   C23329857   1.195   2.403   1.385 -0.7060 -0.7221  0.8374
   93MOL   C23429858   1.345   2.544   1.124 -0.4472 -0.8275 -0.1133
   93MOL   H23529859   1.481   2.575   1.296  1.1187  0.4537 -2.1896
   93MOL   H23629860   1.541   2.397   1.400  0.5627  0.2515  1.1096
   93MOL   H23729861   1.255   2.115   1.558 -0.4935  0.2522 -0.1046
   93MOL   H23829862   1.062   2.248   1.467  0.3028 -0.4590  0.4228
   93MOL   H23929863   1.123   2.472   1.344  0.2417 -0.2099  0.0132
   93MOL   H24029864   1.244   2.507   1.106 -0.1891 -1.0754 -1.0597
   93MOL   H24129865   1.355   2.635   1.066 -0.5181  0.6011  2.0539
   93MOL   C24229866   1.433   2.438   1.057 -0.4788 -0.3274 -0.7079
   93MOL   C24329867   1.367   2.398   0.930 -0.4711 -0.0789  0.0007
   93MOL   C24429868   1.315   2.269   0.919 -0.4003 -0.2961 -0.1844
   93MOL   C24529869   1.266   2.217   0.796 -0.2838  0.1899 -0.1143
   93MOL  Cl24629870   1.190   2.062   0.790 -0.0469  0.3605  0.1338
   93MOL   C24729871   1.273   2.293   0.680  0.3563 -0.5418 -0.2851
   93MOL   C24829872   1.321   2.428   0.690 -0.5967 -0.2792 -0.7890
   93MOL   C24929873   1.362   2.481   0.816 -0.6687  0.0683 -0.7044
   93MOL   C25029874   1.586   2.477   1.037  0.0208  0.9953  0.6136
   93MOL   H25129875   1.424   2.350   1.121 -0.1116 -0.6418 -1.0826
   93MOL   H25229876   1.320   2.199   1.002  5.6482  0.7183  0.5730
   93MOL   H25329877   1.230   2.251   0.590 -0.6009 -0.6387  0.2021
   93MOL   H25429878   1.324   2.488   0.600 -1.2164 -0.4404 -0.9213
   93MOL   H25529879   1.402   2.582   0.814  1.2439 -0.6831 -1.4514
   93MOL   H25629880   1.621   2.500   0.936  0.3006  2.0080  0.9362
   93MOL   H25729881   1.596   2.572   1.091 -2.4590  2.1344 -0.8239
   93MOL   C25829882   1.675   2.364   1.096  0.3678  0.1442  0.1024
   93MOL   C25929883   1.650   2.224   1.044 -0.2149  0.0344  0.5786
   93MOL   C26029884   1.656   2.122   1.132  0.6987  0.2530  0.5235
   93MOL   C26129885   1.646   1.989   1.092  0.2335 -1.2398 -0.4313
   93MOL  Cl26229886   1.669   1.857   1.198 -0.1615 -0.0210 -0.1600
   93MOL   C26329887   1.604   1.963   0.960 -0.3548 -0.1118 -0.4741
   93MOL   C26429888   1.604   2.062   0.859  0.2572 -0.3208 -0.3008
   93MOL   C26529889   1.626   2.196   0.905  0.4823  0.2279 -0.0416
   93MOL   C26629890   1.815   2.392   1.078 -0.6524  0.4369 -0.4346
   93MOL   H26729891   1.655   2.360   1.203  1.1894  0.4729  0.2719
   93MOL   H26829892   1.693   2.136   1.233  1.1658  1.1301  0.2337
   93MOL   H26929893   1.593   1.860   0.930  1.5631 -1.1313  2.1860
   93MOL   H27029894   1.574   2.038   0.758  0.5533 -0.6487 -0.3107
   93MOL   H27129895   1.619   2.272   0.829  2.6631  0.3496 -0.1313
   93MOL   H27229896   1.876   2.303   1.096  1.3667  1.8124 -0.2979
   93MOL   H27329897   1.837   2.405   0.972 -0.2130 -3.5262 -0.9422
   93MOL   C27429898   1.875   2.504   1.169 -0.3427 -0.1685 -0.2078
   93MOL   C27529899   1.855   2.473   1.318  0.0478 -0.1303  0.0654
   93MOL   C27629900   1.884   2.341   1.368  0.0865  0.5176  0.4493
   93MOL   C27729901   1.861   2.311   1.502 -0.4152 -0.3840 -0.9764
   93MOL  Cl27829902   1.887   2.156   1.569  0.6504 -0.0808 -0.5425
   93MOL   C27929903   1.803   2.408   1.588 -0.7420  0.2208  0.0898
   93MOL   C28029904   1.763   2.532   1.535  0.0940 -0.1335 -0.2096
   93MOL   C28129905   1.804   2.571   1.408 -0.1535  0.3239 -0.0401
   93MOL   C28229906   2.022   2.543   1.128 -0.4122 -0.7214 -0.1694
   93MOL   H28329907   1.816   2.593   1.147  2.2940  1.8281  0.4694
   93MOL   H28429908   1.945   2.274   1.309 -0.4537  0.7042 -0.3251
   93MOL   H28529909   1.772   2.384   1.689 -1.1472  3.2170  0.7066
   93MOL   H28629910   1.721   2.607   1.600  0.4579  0.0007 -0.1267
   93MOL   H28729911   1.771   2.671   1.384  2.5622  1.2833 -0.0230
   93MOL   H28829912   2.041   2.635   1.183 -0.5533 -0.7588 -0.0553
   93MOL   H28929913   2.092   2.467   1.163 -1.3205 -0.9730  1.1681
   93MOL   C29029914   2.049   2.589   0.977  1.0774 -0.3838 -0.6371
   93MOL   C29129915   1.939   2.695   0.934 -0.3067  0.9521 -0.2670
   93MOL   C29229916   1.843   2.676   0.832  0.6662  0.5039  0.8482
   93MOL   C29329917   1.744   2.773   0.802 -0.7460  0.2054 -0.2908
   93MOL  Cl29429918   1.630   2.742   0.679 -0.0528  0.0732 -0.0344
   93MOL   C29529919   1.743   2.891   0.874 -0.1820 -0.1285  0.2914
   93MOL   C29629920   1.830   2.914   0.978 -0.6319  0.2783 -0.1671
   93MOL   C29729921   1.932   2.817   1.006  0.3497  0.5674  0.6352
   93MOL   C29829922   2.190   2.643   0.961 -0.5336  0.5253 -0.4527
   93MOL   H29929923   2.031   2.504   0.912 -2.3236  0.2332 -0.6008
   93MOL   H30029924   1.857   2.587   0.773 -1.6529  1.4878 -1.2735
   93MOL   H30129925   1.672   2.969   0.855 -0.6550 -0.7587 -0.5356
   93MOL   H30229926   1.823   3.001   1.040  1.4172  3.0674 -3.6425
   93MOL   H30329927   2.002   2.848   1.082 -0.0773 -0.1803  1.3500
   93MOL   H30429928   2.198   2.730   1.027 -0.4766 -0.4790  0.8849
   93MOL   H30529929   2.252   2.567   1.008  0.1603  2.3206  1.6372
   93MOL   C30629930   2.237   2.674   0.817 -0.4142  0.8527  0.2097
   93MOL   C30729931   2.175   2.794   0.753 -0.4658 -0.4909  0.4155
   93MOL   C30829932   2.077   2.783   0.654  0.0392  0.0529  0.2937
   93MOL   C30929933   2.029   2.897   0.586 -0.0184 -0.3681 -1.4303
   93MOL  Cl31029934   1.907   2.874   0.464  0.2059 -0.0900 -0.2930
   93MOL   C31129935   2.073   3.029   0.626 -0.8227 -0.4231  0.0800
   93MOL   C31229936   2.157   3.043   0.737 -1.0494 -0.3307  0.2105
   93MOL   C31329937   2.207   2.926   0.798 -0.5442 -0.2511 -0.1063
   93MOL   C31429938   2.392   2.673   0.793 -0.0989  0.3925  0.1710
   93MOL   H31529939   2.197   2.591   0.758  0.4063  2.5964 -2.9024
   93MOL   H31629940   2.055   2.680   0.628  1.8597 -0.1440 -0.5515
   93MOL   H31729941   2.028   3.117   0.581  0.0007 -0.1645 -0.2383
   93MOL   H31829942   2.191   3.141   0.767  1.2451 -1.0660  0.0534
   93MOL   H31929943   2.282   2.931   0.876  0.8856  1.5118 -1.5571
   93MOL   H32029944   2.443   2.766   0.819  2.4721 -0.9069 -0.0005
   93MOL   H32129945   2.440   2.605   0.864 -0.3262 -1.8121 -1.7476
   93MOL   H32229946   2.405   2.658   0.686 -1.9481  1.9861 -0.3133
   94MOL     C129947   1.997   1.764   5.502  0.2931  0.4719  0.5604
   94MOL     C229948   2.053   1.667   5.604  0.2742 -0.2133 -0.4863
   94MOL     C329949   2.139   1.714   5.707  0.2607 -0.0236 -0.6181
   94MOL     C429950   2.189   1.624   5.802 -0.2682  0.1492  0.0469
   94MOL    Cl529951   2.290   1.678   5.939  0.0040 -0.1805 -0.1878
   94MOL     C629952   2.165   1.483   5.787 -0.0459  0.1932 -0.2268
   94MOL     C729953   2.077   1.440   5.690  0.6147  0.2087  0.9102
   94MOL     C829954   2.025   1.529   5.591 -0.3014 -0.5760 -0.0349
   94MOL     C929955   1.873   1.836   5.556 -0.1069  0.3286 -0.2485
   94MOL    H1029956   1.974   1.727   5.402 -0.8584  0.3962  0.8529
   94MOL    H1129957   2.157   1.820   5.718 -0.9842  0.1195  0.1088
   94MOL    H1229958   2.201   1.415   5.862 -2.1438 -1.7017 -0.9093
   94MOL    H1329959   2.048   1.337   5.676 -2.9048  1.3077 -0.6369
   94MOL    H1429960   1.968   1.493   5.506 -1.1314  0.7761 -0.0716
   94MOL    H1529961   1.798   1.758   5.566  0.1411  0.0032 -0.8814
   94MOL    H1629962   1.899   1.863   5.658 -0.8550  0.2941 -0.0480
   94MOL    H1729963   2.063   1.844   5.467 -0.3181 -0.2099 -2.3217
   94MOL    C1829964   1.833   1.958   5.475 -0.1003 -0.0399  0.3658
   94MOL    C1929965   1.773   1.909   5.346  0.7964  0.2967 -0.4063
   94MOL    C2029966   1.636   1.880   5.338 -0.1485 -0.1044 -0.1092
   94MOL    C2129967   1.586   1.844   5.214 -0.4594  0.3610 -0.0416
   94MOL   Cl2229968   1.419   1.850   5.190 -0.1459 -0.0396  0.0267
   94MOL    C2329969   1.674   1.822   5.105  0.2943  0.2178  0.1777
   94MOL    C2429970   1.812   1.849   5.109 -0.4579  0.2355 -0.5198
   94MOL    C2529971   1.861   1.891   5.236  0.0995  0.0192  0.4017
   94MOL    C2629972   1.743   2.056   5.556  0.5144  0.4014  0.1903
   94MOL    H2729973   1.928   2.008   5.455 -0.5962  0.3797 -0.9227
   94MOL    H2829974   1.576   1.895   5.427 -2.0364  1.1442 -1.5402
   94MOL    H2929975   1.629   1.797   5.010 -0.8080 -0.5562  0.8858
   94MOL    H3029976   1.874   1.836   5.022  1.5992  0.6599  0.8426
   94MOL    H3129977   1.965   1.915   5.254  0.4448  0.5594 -2.0640
   94MOL    H3229978   1.698   2.120   5.481 -1.6558  0.8546  1.8169
   94MOL    H3329979   1.663   1.994   5.596  0.2680  1.7646  1.8984
   94MOL    C3429980   1.816   2.127   5.666 -0.4271  0.5623 -0.2215
   94MOL    C3529981   1.955   2.179   5.636  0.3453  0.2259  0.3855
   94MOL    C3629982   1.969   2.292   5.554 -0.5042 -0.0198  0.3980
   94MOL    C3729983   2.097   2.343   5.521  0.1233  0.1117 -0.6228
   94MOL   Cl3829984   2.121   2.480   5.414 -0.4098  0.2527 -0.4699
   94MOL    C3929985   2.207   2.285   5.589  0.2114  0.1071  0.3900
   94MOL    C4029986   2.195   2.176   5.677  0.0190  0.6722 -0.2913
   94MOL    C4129987   2.067   2.123   5.704  0.1084  0.2459  0.5377
   94MOL    C4229988   1.730   2.242   5.721  0.0935 -0.0024 -0.5840
   94MOL    H4329989   1.826   2.063   5.754  4.4252  0.1902 -0.8932
   94MOL    H4429990   1.881   2.341   5.515 -0.3176 -0.1126 -0.1419
   94MOL    H4529991   2.302   2.330   5.566  0.0580 -0.2307 -0.9913
   94MOL    H4629992   2.278   2.119   5.714  1.4280  2.3699 -0.7825
   94MOL    H4729993   2.056   2.032   5.762  0.5900  1.0783  1.9702
   94MOL    H4829994   1.794   2.273   5.804 -0.1966 -0.4719 -0.1837
   94MOL    H4929995   1.727   2.326   5.651 -0.7226 -2.3547 -3.4836
   94MOL    C5029996   1.583   2.217   5.768  0.2679 -0.1721  0.0387
   94MOL    C5129997   1.580   2.126   5.886 -0.7515 -0.0892 -0.1402
   94MOL    C5229998   1.470   2.033   5.894 -0.5383  0.5911 -0.6684
   94MOL    C5329999   1.453   1.942   6.002  0.1230  0.8760  0.6259
   94MOL   Cl5430000   1.323   1.825   5.983  0.0311  0.0898 -0.1662
   94MOL    C5530001   1.537   1.956   6.113  0.5473 -0.3588  0.6473
   94MOL    C5630002   1.637   2.055   6.110 -0.2240 -0.2567  0.4465
   94MOL    C5730003   1.661   2.141   6.000 -0.4729 -0.4547 -0.7915
   94MOL    C5830004   1.515   2.350   5.808 -0.1063 -0.4103 -1.0339
   94MOL    H5930005   1.523   2.179   5.686  1.9334  0.4916 -1.5130
   94MOL    H6030006   1.399   2.021   5.813 -1.2330  1.1274 -0.1460
   94MOL    H6130007   1.524   1.893   6.200 -0.3639  0.4945  1.1308
   94MOL    H6230008   1.680   2.062   6.209 -2.5812 -0.4178  1.5330
   94MOL    H6330009   1.735   2.220   6.003 -0.2450 -0.7030  0.7805
   94MOL    H6430010   1.418   2.320   5.846 -1.2464  2.2940 -1.6908
   94MOL    H6530011   1.561   2.398   5.895 -1.3846 -1.5978  0.3285
   94MOL    C6630012   1.477   2.446   5.697  0.0483 -0.1756  0.0452
   94MOL    C6730013   1.373   2.395   5.600  0.3865  0.2458  0.2621
   94MOL    C6830014   1.238   2.370   5.645 -0.1712 -0.0608 -0.1721
   94MOL    C6930015   1.145   2.309   5.561 -0.2455  0.1330  0.2642
   94MOL   Cl7030016   0.983   2.257   5.611  0.3503  0.2875  0.3881
   94MOL    C7130017   1.177   2.295   5.426  0.5204  0.1603  0.5028
   94MOL    C7230018   1.302   2.331   5.378  0.1252 -0.6384  0.6131
   94MOL    C7330019   1.401   2.375   5.465 -0.6240  0.6965  0.5580
   94MOL    C7430020   1.427   2.589   5.748 -0.3794 -0.1927 -0.6086
   94MOL    H7530021   1.563   2.473   5.635 -0.5619 -0.1112 -0.7755
   94MOL    H7630022   1.218   2.389   5.749  1.0422  0.1835  0.0214
   94MOL    H7730023   1.103   2.254   5.358  0.4022 -0.9447  1.2763
   94MOL    H7830024   1.319   2.326   5.272  1.5449 -0.5296  0.8183
   94MOL    H7930025   1.497   2.398   5.422 -0.3018 -0.9309  0.3631
   94MOL    H8030026   1.420   2.640   5.652  0.5803  2.7845  0.8557
   94MOL    H8130027   1.333   2.582   5.803  0.2607 -1.4052  0.3661
   94MOL    C8230028   1.525   2.678   5.832 -0.2329  0.2964  0.2847
   94MOL    C8330029   1.670   2.674   5.777  0.8454  0.3888  0.6441
   94MOL    C8430030   1.780   2.617   5.853 -0.4389 -0.3444 -0.2274
   94MOL    C8530031   1.906   2.622   5.797 -0.0438  0.4222  0.0482
   94MOL   Cl8630032   2.035   2.528   5.873 -0.3433 -0.4055 -0.1171
   94MOL    C8730033   1.931   2.678   5.674  0.4992  0.1632 -0.1593
   94MOL    C8830034   1.824   2.734   5.593 -0.6015 -0.3368  0.0364
   94MOL    C8930035   1.692   2.731   5.645 -0.1116  0.2254 -0.8887
   94MOL    C9030036   1.472   2.820   5.861 -0.1841 -0.0103 -0.2045
   94MOL    H9130037   1.535   2.631   5.930  0.2034  0.0509  0.1255
   94MOL    H9230038   1.769   2.559   5.943  1.7386 -0.0479  0.2532
   94MOL    H9330039   2.028   2.666   5.628 -0.5324 -0.7444 -2.1540
   94MOL    H9430040   1.845   2.776   5.496  1.2327 -2.8679 -0.7255
   94MOL    H9530041   1.615   2.770   5.580  0.5364 -0.8994 -2.3470
   94MOL    H9630042   1.457   2.854   5.758  0.1021 -1.7883 -0.8581
   94MOL    H9730043   1.376   2.809   5.911 -1.2441  3.2032 -1.4232
   94MOL    C9830044   1.572   2.917   5.922 -0.0602  0.2212 -0.5951
   94MOL    C9930045   1.525   3.050   5.903 -0.7352 -0.2322  0.1612
   94MOL   C10030046   1.407   3.094   5.965 -0.8315  0.4725 -0.4028
   94MOL   C10130047   1.343   3.218   5.938  0.4291  0.9374  0.5581
   94MOL  Cl10230048   1.199   3.274   6.010  0.4255 -0.3551 -0.0944
   94MOL   C10330049   1.412   3.306   5.852  0.0150  0.5664 -0.7734
   94MOL   C10430050   1.541   3.273   5.804  0.0743 -0.2497 -0.5512
   94MOL   C10530051   1.595   3.145   5.823 -0.6723 -0.2876  0.6370
   94MOL   C10630052   1.614   2.890   6.068 -0.3439  0.6316 -0.2523
   94MOL   H10730053   1.659   2.915   5.857  1.2075  1.9095  0.9929
   94MOL   H10830054   1.356   3.026   6.032  2.2532 -2.8756 -1.2787
   94MOL   H10930055   1.367   3.401   5.826 -0.5197  0.8042  0.9597
   94MOL   H11030056   1.589   3.339   5.733 -2.1267  1.0628 -0.8391
   94MOL   H11130057   1.687   3.112   5.778  0.3394  0.9343  1.8155
   94MOL   H11230058   1.529   2.892   6.136 -1.0650 -3.3302 -0.9539
   94MOL   H11330059   1.651   2.788   6.064  0.1758  0.7333  1.5602
   94MOL   C11430060   1.722   2.990   6.118  0.4818  0.8001 -0.6178
   94MOL   C11530061   1.659   3.092   6.206  0.0313  0.5243  0.0360
   94MOL   C11630062   1.596   3.058   6.327  0.2682 -0.6196  0.3744
   94MOL   C11730063   1.537   3.162   6.403  0.1696  0.6288  0.2363
   94MOL  Cl11830064   1.471   3.129   6.560 -0.6115  0.0377  0.7624
   94MOL   C11930065   1.528   3.291   6.352 -0.1237 -0.3439  0.6146
   94MOL   C12030066   1.583   3.324   6.228 -0.4715  0.0263  0.1632
   94MOL   C12130067   1.645   3.220   6.156  0.7331 -0.4209 -0.1408
   94MOL   C12230068   1.842   2.918   6.201  0.3406  0.0850 -0.2566
   94MOL   H12330069   1.774   3.036   6.034  1.9709  0.4222  0.0690
   94MOL   H12430070   1.609   2.959   6.367  2.2976 -0.8626 -0.8307
   94MOL   H12530071   1.471   3.365   6.406  1.7646  1.7035 -0.1324
   94MOL   H12630072   1.572   3.422   6.183  2.1868 -0.5622 -1.9356
   94MOL   H12730073   1.686   3.247   6.060 -0.2333 -4.3688 -1.7412
   94MOL   H12830074   1.793   2.869   6.285  0.2265  0.7353  0.0605
   94MOL   H12930075   1.871   2.838   6.133 -1.0752 -1.6013  1.1040
   94MOL   C13030076   1.967   3.008   6.223  0.1370 -0.1444 -0.9202
   94MOL   C13130077   1.943   3.104   6.343  0.2249  0.0497 -0.1676
   94MOL   C13230078   1.968   3.241   6.325  0.3000  0.1536  0.2562
   94MOL   C13330079   1.941   3.337   6.427  0.6561 -0.4377 -0.0444
   94MOL  Cl13430080   1.957   3.508   6.392 -0.2577 -0.2715  0.1188
   94MOL   C13530081   1.898   3.294   6.555 -0.2454  0.7697  0.5723
   94MOL   C13630082   1.860   3.158   6.577 -0.6526 -0.1022  0.2361
   94MOL   C13730083   1.887   3.062   6.471 -0.4278 -0.7660 -0.0810
   94MOL   C13830084   2.088   2.921   6.267  0.1713 -0.4442 -0.2457
   94MOL   H13930085   1.988   3.066   6.134  1.1300  0.8407 -0.0670
   94MOL   H14030086   2.002   3.267   6.226  2.0175 -0.1884  0.7310
   94MOL   H14130087   1.890   3.364   6.637 -2.1174 -1.4052  2.3143
   94MOL   H14230088   1.804   3.122   6.662 -2.7451 -1.8922 -1.8306
   94MOL   H14330089   1.875   2.956   6.482  0.7299 -0.9895 -0.8240
   94MOL   H14430090   2.154   2.989   6.319 -0.7396  1.0268 -0.9813
   94MOL   H14530091   2.051   2.849   6.339 -0.1109 -1.3987 -1.3231
   94MOL   C14630092   2.160   2.852   6.148  0.0201 -0.1524 -0.2796
   94MOL   C14730093   2.193   2.952   6.036  0.4528 -0.1302 -0.0939
   94MOL   C14830094   2.143   2.924   5.906 -0.1982  0.3717 -0.2984
   94MOL   C14930095   2.191   3.003   5.801 -0.6822 -0.3329  0.2103
   94MOL  Cl15030096   2.126   2.966   5.642 -0.7676  0.0810 -0.6258
   94MOL   C15130097   2.280   3.111   5.814  0.0797 -0.3585 -0.1735
   94MOL   C15230098   2.331   3.141   5.945 -0.4678  0.2965  0.2800
   94MOL   C15330099   2.288   3.059   6.050  0.6511 -0.6604 -0.6352
   94MOL   C15430100   2.287   2.791   6.207  0.7072 -0.5129 -0.3310
   94MOL   H15530101   2.094   2.779   6.102 -0.6078 -0.2958  0.8281
   94MOL   H15630102   2.071   2.846   5.884 -0.5156  0.2560  1.0905
   94MOL   H15730103   2.304   3.167   5.725 -1.0632 -0.5693 -0.6130
   94MOL   H15830104   2.404   3.219   5.958 -0.1341  0.2096 -1.0683
   94MOL   H15930105   2.321   3.082   6.150 -0.7682 -1.3755  0.0093
   94MOL   H16030106   2.337   2.878   6.250 -0.2726 -1.1735  2.2559
   94MOL   H16130107   2.268   2.730   6.296 -1.1932  0.8726  0.2499
   94MOL   C16230108   2.388   2.731   6.103  0.4559  0.8581  0.0063
   94MOL   C16330109   2.535   2.769   6.136  0.0634 -0.9280  0.4761
   94MOL   C16430110   2.618   2.831   6.037  0.7831 -0.5129 -0.8423
   94MOL   C16530111   2.750   2.875   6.067 -0.2469  0.2954 -0.7451
   94MOL  Cl16630112   2.853   2.941   5.950 -0.1657  0.2535 -0.2396
   94MOL   C16730113   2.808   2.840   6.193  0.4144 -0.3067 -0.3899
   94MOL   C16830114   2.725   2.764   6.288 -0.1025 -0.5724 -0.3131
   94MOL   C16930115   2.589   2.747   6.265  0.6727 -0.0269 -0.2694
   94MOL   C17030116   2.370   2.579   6.094  0.0379 -0.1857  0.5657
   94MOL   H17130117   2.360   2.778   6.009 -1.8865  2.2230  1.3457
   94MOL   H17230118   2.576   2.859   5.942 -0.6663  1.0352  0.2405
   94MOL   H17330119   2.913   2.848   6.216  0.0731  2.2040  0.3457
   94MOL   H17430120   2.773   2.730   6.379  0.1009  0.0696 -0.1752
   94MOL   H17530121   2.530   2.697   6.341  1.4830 -1.3923 -0.5080
   94MOL   H17630122   2.394   2.529   6.188  1.4105 -0.0920  0.2804
   94MOL   H17730123   2.264   2.554   6.089 -0.2191  1.3002 -3.9627
   94MOL   C17830124   2.443   2.510   5.980  0.0646 -0.3282  0.0585
   94MOL   C17930125   2.455   2.360   5.997  0.2287  0.1100 -0.0465
   94MOL   C18030126   2.575   2.292   5.988  0.2908  0.1911  0.4071
   94MOL   C18130127   2.584   2.150   5.984  0.5384  0.3935  0.0159
   94MOL  Cl18230128   2.745   2.077   5.965  0.0145  0.2396  0.6586
   94MOL   C18330129   2.465   2.070   5.986 -0.5604  0.3629 -0.0792
   94MOL   C18430130   2.344   2.145   5.983  0.5490  0.6586 -0.0011
   94MOL   C18530131   2.337   2.287   5.986  0.3841  0.0789 -0.0281
   94MOL   C18630132   2.376   2.552   5.843 -0.6781 -0.7283  0.4764
   94MOL   H18730133   2.545   2.547   5.990 -0.1621  0.6449 -1.1178
   94MOL   H18830134   2.662   2.356   5.985 -0.7474  1.6296  0.5482
   94MOL   H18930135   2.466   1.963   5.973  1.7888  0.0943  1.9733
   94MOL   H19030136   2.253   2.088   5.971  0.6053  0.2822  1.3624
   94MOL   H19130137   2.241   2.336   5.976 -0.2323 -1.2866 -1.0311
   94MOL   H19230138   2.332   2.467   5.791  0.5226 -0.8724 -0.3258
   94MOL   H19330139   2.297   2.623   5.865 -0.6177 -0.5639  0.1667
   94MOL   C19430140   2.483   2.626   5.757  1.2048 -0.0032  0.2991
   94MOL   C19530141   2.606   2.542   5.724  0.2828  0.2755 -0.1674
   94MOL   C19630142   2.596   2.437   5.630 -0.8354 -0.7482  0.0827
   94MOL   C19730143   2.713   2.366   5.590  0.0694 -0.3390  0.9408
   94MOL  Cl19830144   2.697   2.234   5.486  0.1278  0.1535  0.2280
   94MOL   C19930145   2.843   2.405   5.639 -0.5895 -0.4466 -0.5418
   94MOL   C20030146   2.852   2.510   5.730  0.1613  0.2403 -0.5328
   94MOL   C20130147   2.735   2.582   5.773  0.3181  0.6390  0.2613
   94MOL   C20230148   2.421   2.686   5.622 -0.0203 -0.2558  0.5932
   94MOL   H20330149   2.512   2.708   5.822 -1.6390  0.9450  0.4714
   94MOL   H20430150   2.507   2.405   5.577  0.7925 -1.8857 -2.0369
   94MOL   H20530151   2.933   2.352   5.612  0.8776  2.6203 -1.8593
   94MOL   H20630152   2.950   2.523   5.775  0.0591 -1.1268  0.1123
   94MOL   H20730153   2.746   2.659   5.848  2.3935 -1.2180  1.9443
   94MOL   H20830154   2.368   2.609   5.565  0.5574  1.5383 -2.4396
   94MOL   H20930155   2.340   2.756   5.645  0.3565 -0.2355  1.9117
   94MOL   C21030156   2.515   2.758   5.523  0.8490  0.3037  0.0420
   94MOL   C21130157   2.468   2.752   5.377 -0.2070  1.0667  0.6225
   94MOL   C21230158   2.553   2.689   5.287 -0.3088 -0.0196 -0.4164
   94MOL   C21330159   2.514   2.678   5.152 -0.1693  0.3425  0.0439
   94MOL  Cl21430160   2.613   2.598   5.036  0.2870  0.3378 -0.3612
   94MOL   C21530161   2.379   2.716   5.113 -0.3237  0.3359  0.3025
   94MOL   C21630162   2.296   2.781   5.204  0.5662  0.3722 -0.8635
   94MOL   C21730163   2.346   2.805   5.335 -0.5418 -0.6995  0.0146
   94MOL   C21830164   2.522   2.905   5.567  0.0161 -0.6408 -0.8537
   94MOL   H21930165   2.617   2.721   5.534  0.4474 -1.1237 -0.8954
   94MOL   H22030166   2.649   2.651   5.320 -0.4009  0.4227  0.3767
   94MOL   H22130167   2.334   2.697   5.016  1.3459 -2.0185 -0.0556
   94MOL   H22230168   2.195   2.814   5.182  0.3414  1.0895  1.1221
   94MOL   H22330169   2.284   2.856   5.408  0.6182 -0.0932  0.5804
   94MOL   H22430170   2.427   2.954   5.585  0.6328  0.5175 -0.6680
   94MOL   H22530171   2.551   2.898   5.671 -1.0731 -0.3175 -0.5247
   94MOL   C22630172   2.601   3.004   5.490 -0.0574 -0.4150  0.5690
   94MOL   C22730173   2.594   3.151   5.542  0.7691 -0.0164 -0.4267
   94MOL   C22830174   2.624   3.185   5.678 -0.1689 -0.3533 -0.3918
   94MOL   C22930175   2.632   3.321   5.717 -0.2602 -0.0106 -0.1072
   94MOL  Cl23030176   2.654   3.365   5.880 -0.3152  0.0126 -0.0725
   94MOL   C23130177   2.608   3.420   5.618  0.4708  0.5014  0.6287
   94MOL   C23230178   2.585   3.382   5.484  0.1467  0.0750 -0.1797
   94MOL   C23330179   2.575   3.248   5.447 -0.8191  0.2227 -1.0546
   94MOL   C23430180   2.747   2.956   5.473 -0.1594 -0.7011 -0.5242
   94MOL   H23530181   2.558   3.004   5.390  0.4504 -2.9148  0.3232
   94MOL   H23630182   2.659   3.104   5.740  0.7387 -0.4577 -1.0312
   94MOL   H23730183   2.604   3.524   5.649 -0.1003  0.4848  0.6132
   94MOL   H23830184   2.557   3.453   5.408 -1.9037 -1.9202 -1.3418
   94MOL   H23930185   2.549   3.229   5.344  0.2316  2.3478 -1.7413
   94MOL   H24030186   2.777   2.938   5.576 -3.3497 -1.3021  0.3590
   94MOL   H24130187   2.746   2.863   5.417 -1.7858 -1.4239  0.6589
   94MOL   C24230188   2.852   3.049   5.414  0.5346 -0.0330  0.1255
   94MOL   C24330189   2.984   2.981   5.435  0.8084 -0.2999  0.3003
   94MOL   C24430190   3.027   2.861   5.369  0.2884 -0.7226  0.9397
   94MOL   C24530191   3.161   2.816   5.384 -0.3788  0.6062  0.5384
   94MOL  Cl24630192   3.226   2.690   5.282  0.4045 -0.1828  0.3418
   94MOL   C24730193   3.242   2.869   5.485  0.6589  0.1823  0.6535
   94MOL   C24830194   3.198   2.987   5.548  0.0893 -0.1136 -0.3060
   94MOL   C24930195   3.073   3.050   5.523  0.1345  0.4310  0.3224
   94MOL   C25030196   2.832   3.081   5.259  0.0141 -0.3214 -0.0793
   94MOL   H25130197   2.854   3.140   5.475  1.2365  0.0312  0.0057
   94MOL   H25230198   2.969   2.803   5.298  0.9363 -0.0667 -0.1407
   94MOL   H25330199   3.338   2.827   5.509  0.3450  0.2573  2.1095
   94MOL   H25430200   3.261   3.031   5.624 -1.5063  1.2672  0.2455
   94MOL   H25530201   3.039   3.141   5.570 -1.5418 -0.6157  1.2304
   94MOL   H25630202   2.835   2.984   5.210 -1.7784 -1.4666  1.9768
   94MOL   H25730203   2.730   3.118   5.245  0.3524  1.3633  1.7590
   94MOL   C25830204   2.938   3.180   5.203  0.5636  0.3071 -0.2514
   94MOL   C25930205   2.952   3.152   5.055  0.0128  0.1327  0.0388
   94MOL   C26030206   3.082   3.149   4.997 -0.5506  0.4752  0.2943
   94MOL   C26130207   3.100   3.119   4.861 -0.5791 -0.0676  0.6687
   94MOL  Cl26230208   3.260   3.099   4.799 -0.1079  0.3117 -0.3195
   94MOL   C26330209   2.989   3.097   4.782  0.2340 -1.0412  0.0490
   94MOL   C26430210   2.857   3.107   4.836 -0.2754 -0.1877  0.2953
   94MOL   C26530211   2.836   3.129   4.974  0.1246 -0.4626  0.0084
   94MOL   C26630212   2.908   3.328   5.225 -0.1949  0.8575 -0.0478
   94MOL   H26730213   3.032   3.146   5.245  0.5546  0.9424  0.2945
   94MOL   H26830214   3.171   3.174   5.052  0.0880  0.8652 -0.9044
   94MOL   H26930215   2.999   3.079   4.676 -1.9598 -0.3660 -0.2962
   94MOL   H27030216   2.774   3.089   4.769  0.6647 -2.0870 -0.3601
   94MOL   H27130217   2.735   3.129   5.014  0.5200 -1.3829  1.0452
   94MOL   H27230218   2.847   3.362   5.141 -0.5614  0.4104  0.0332
   94MOL   H27330219   2.838   3.331   5.309 -0.6640  1.0089 -0.4447
   94MOL   C27430220   3.026   3.428   5.260  0.3670 -0.9335 -0.0545
   94MOL   C27530221   3.127   3.438   5.146 -0.1619  0.0511 -0.2098
   94MOL   C27630222   3.264   3.440   5.182  0.6739  0.2080  0.0145
   94MOL   C27730223   3.360   3.471   5.085  0.1113  0.1452 -0.4678
   94MOL  Cl27830224   3.524   3.477   5.133 -0.2818 -0.4278  0.0164
   94MOL   C27930225   3.321   3.482   4.952 -0.8324 -0.2461  0.1807
   94MOL   C28030226   3.185   3.475   4.912  0.2152 -0.3084  0.5240
   94MOL   C28130227   3.086   3.454   5.010 -0.4551  0.4833 -0.2759
   94MOL   C28230228   2.995   3.566   5.307 -0.0866  0.4558  0.5336
   94MOL   H28330229   3.093   3.384   5.334  1.6024  0.2715 -0.4331
   94MOL   H28430230   3.296   3.429   5.284 -0.8023 -1.2873  0.3424
   94MOL   H28530231   3.396   3.499   4.876  1.1278  0.9097  2.3097
   94MOL   H28630232   3.153   3.492   4.810  0.8133  1.3257  0.5888
   94MOL   H28730233   2.981   3.455   4.985 -0.6264  3.3650  0.3832
   94MOL   H28830234   3.072   3.635   5.273 -1.2576  0.7519 -1.6379
   94MOL   H28930235   2.918   3.601   5.237  0.0833 -0.1474  0.0476
   94MOL   C29030236   2.968   3.589   5.461  0.1371 -0.3970 -0.0127
   94MOL   C29130237   3.057   3.500   5.560 -0.4850 -0.2155 -0.4073
   94MOL   C29230238   2.998   3.408   5.649  0.3519 -0.2446 -0.5381
   94MOL   C29330239   3.075   3.351   5.756  0.4471 -0.3571 -0.2036
   94MOL  Cl29430240   3.016   3.245   5.875 -0.3745 -0.3051  0.5623
   94MOL   C29530241   3.207   3.385   5.762  0.3000 -0.1978 -0.5297
   94MOL   C29630242   3.271   3.463   5.661  0.4101  0.0676 -0.7256
   94MOL   C29730243   3.197   3.519   5.556 -0.3785 -0.4088 -0.1977
   94MOL   C29830244   2.968   3.738   5.496 -0.2443 -0.5278  0.1792
   94MOL   H29930245   2.862   3.568   5.479  0.3169 -0.2041  1.3797
   94MOL   H30030246   2.893   3.385   5.645  0.2259  0.4622 -1.3391
   94MOL   H30130247   3.270   3.346   5.841  0.0301 -0.3613 -0.3943
   94MOL   H30230248   3.379   3.473   5.669  0.5491 -0.9118 -1.2787
   94MOL   H30330249   3.243   3.579   5.479  0.9139 -0.3372  0.6235
   94MOL   H30430250   3.067   3.782   5.493 -0.2470 -0.6011 -1.3245
   94MOL   H30530251   2.916   3.797   5.420 -0.4226  0.7663  1.2965
   94MOL   C30630252   2.920   3.784   5.643 -0.2816  0.0899 -0.0186
   94MOL   C30730253   2.993   3.899   5.710  0.3456 -0.0076 -0.2980
   94MOL   C30830254   3.032   4.005   5.628  0.3748 -0.2229  0.0823
   94MOL   C30930255   3.104   4.120   5.677 -0.1202 -0.5409  0.2035
   94MOL  Cl31030256   3.139   4.255   5.579  0.3921  0.1185  0.0236
   94MOL   C31130257   3.135   4.124   5.812  0.3751  0.7256 -0.2379
   94MOL   C31230258   3.096   4.016   5.899  0.6010 -0.2938  0.6954
   94MOL   C31330259   3.037   3.900   5.841  0.3210 -0.0199  0.9030
   94MOL   C31430260   2.776   3.800   5.638  0.5148 -0.1918  0.5762
   94MOL   H31530261   2.953   3.708   5.714  0.8814  0.5159 -0.0990
   94MOL   H31630262   2.993   4.009   5.527  0.7755 -2.5896 -0.2020
   94MOL   H31730263   3.165   4.221   5.849 -2.4254  1.9536 -1.0350
   94MOL   H31830264   3.112   4.030   6.005  0.8871  1.9800  0.3805
   94MOL   H31930265   3.023   3.816   5.906 -0.1987  0.5069  1.4767
   94MOL   H32030266   2.742   3.880   5.572 -0.2896  0.2440  1.4956
   94MOL   H32130267   2.727   3.718   5.586 -0.0697 -0.4401  1.5143
   94MOL   H32230268   2.740   3.819   5.739 -0.2732 -1.5074  0.5550
   95MOL     C130269   3.419   7.383   6.544  0.7715 -0.0324  0.8688
   95MOL     C230270   3.449   7.446   6.411  0.3714  0.1879  0.0723
   95MOL     C330271   3.359   7.424   6.305  0.0239  0.0311 -0.1130
   95MOL     C430272   3.366   7.502   6.182 -0.3186  0.4225 -0.2440
   95MOL    Cl530273   3.258   7.495   6.058 -0.1039 -0.1820  0.1435
   95MOL     C630274   3.475   7.584   6.162 -0.4388 -0.6143  0.4547
   95MOL     C730275   3.568   7.604   6.269 -0.5651  0.1670  0.4612
   95MOL     C830276   3.557   7.537   6.393 -0.0351  0.0396 -0.2143
   95MOL     C930277   3.277   7.423   6.602 -0.1456  0.3942  0.0482
   95MOL    H1030278   3.496   7.408   6.617  0.1356  1.4928  1.0216
   95MOL    H1130279   3.276   7.355   6.312 -2.6096  2.9211 -1.9063
   95MOL    H1230280   3.489   7.647   6.075 -1.1659 -0.8644  0.1577
   95MOL    H1330281   3.646   7.677   6.254 -0.3346 -0.4422 -1.6043
   95MOL    H1430282   3.629   7.566   6.468  0.5966  1.6056 -1.3822
   95MOL    H1530283   3.264   7.531   6.607  0.1523  0.4759 -0.7950
   95MOL    H1630284   3.191   7.395   6.542  0.4080  0.4536 -0.7831
   95MOL    H1730285   3.419   7.275   6.528  0.5169  0.1364 -0.3067
   95MOL    C1830286   3.262   7.358   6.743  0.1685  0.1532 -0.1959
   95MOL    C1930287   3.168   7.434   6.830  0.7072  0.7031 -0.3043
   95MOL    C2030288   3.209   7.483   6.956 -0.3156 -0.8473 -0.2877
   95MOL    C2130289   3.117   7.557   7.036 -0.5840 -0.3311 -0.2564
   95MOL   Cl2230290   3.170   7.614   7.188 -0.1521 -0.5690 -0.0259
   95MOL    C2330291   2.986   7.569   6.989 -0.4669 -0.2254  0.0489
   95MOL    C2430292   2.942   7.514   6.868  0.9780  0.9636 -0.2076
   95MOL    C2530293   3.032   7.456   6.780 -0.0316  0.5150 -0.0636
   95MOL    C2630294   3.224   7.210   6.738 -0.0277  0.1569  0.5093
   95MOL    H2730295   3.355   7.362   6.799 -1.3642 -0.1868  2.4414
   95MOL    H2830296   3.311   7.479   6.990 -0.0710  1.7086 -0.6511
   95MOL    H2930297   2.913   7.618   7.052 -1.6169  1.1843 -2.3052
   95MOL    H3030298   2.841   7.522   6.831 -0.2239 -2.4350  2.0744
   95MOL    H3130299   2.999   7.414   6.686 -0.4788 -0.7626  0.6523
   95MOL    H3230300   3.117   7.196   6.724  0.1228 -0.4177 -0.0834
   95MOL    H3330301   3.283   7.164   6.659 -0.3900 -1.8445  1.3770
   95MOL    C3430302   3.266   7.124   6.860 -0.8346  0.5469  0.0415
   95MOL    C3530303   3.177   7.002   6.873 -0.2750  0.2237 -0.1127
   95MOL    C3630304   3.049   7.011   6.930  0.1721  0.7174  0.4005
   95MOL    C3730305   2.959   6.903   6.940  0.1182  0.4605  0.6980
   95MOL   Cl3830306   2.806   6.906   7.032 -0.1958  0.1117  0.1026
   95MOL    C3930307   3.007   6.776   6.899 -0.0333  0.1399  0.8062
   95MOL    C4030308   3.140   6.758   6.851 -0.5529 -0.0376 -0.0088
   95MOL    C4130309   3.224   6.873   6.833  0.3046 -0.4899 -0.3234
   95MOL    C4230310   3.419   7.094   6.874 -0.1958 -0.3510  0.1495
   95MOL    H4330311   3.235   7.183   6.945 -2.6427  2.3145 -1.8040
   95MOL    H4430312   3.021   7.110   6.964  2.6188  1.4643  0.3352
   95MOL    H4530313   2.937   6.694   6.905  1.2725 -1.2725 -2.2825
   95MOL    H4630314   3.170   6.660   6.819 -1.8439 -0.2953 -0.4608
   95MOL    H4730315   3.317   6.851   6.782  0.9400  0.1404  0.5423
   95MOL    H4830316   3.458   7.022   6.801  2.0968  1.1287 -0.1494
   95MOL    H4930317   3.456   7.187   6.832 -0.4085  0.2153  1.2312
   95MOL    C5030318   3.473   7.080   7.018 -0.3262  0.0642 -0.2589
   95MOL    C5130319   3.433   6.944   7.075  0.0915  0.7256  0.3662
   95MOL    C5230320   3.316   6.925   7.154 -0.0893 -0.4341 -0.4124
   95MOL    C5330321   3.289   6.804   7.227  0.4651 -0.0095  0.0768
   95MOL   Cl5430322   3.149   6.796   7.337 -0.2692  0.2325  0.5162
   95MOL    C5530323   3.378   6.690   7.213 -0.6953 -0.0480  0.5447
   95MOL    C5630324   3.492   6.713   7.131  0.7183 -0.1507  1.7682
   95MOL    C5730325   3.512   6.831   7.060 -0.8379  0.0873 -0.2268
   95MOL    C5830326   3.627   7.112   7.030 -0.1975  0.8731 -0.4067
   95MOL    H5930327   3.419   7.149   7.084 -1.3776 -0.4329 -0.5839
   95MOL    H6030328   3.257   7.015   7.171 -1.5042 -1.4574  0.2496
   95MOL    H6130329   3.365   6.591   7.252  0.3333  0.5224  2.3778
   95MOL    H6230330   3.556   6.627   7.129 -0.1356 -0.7863  1.0457
   95MOL    H6330331   3.589   6.827   6.983 -0.2819  0.7674  0.2807
   95MOL    H6430332   3.678   7.045   6.960  0.4594  2.5395 -1.5388
   95MOL    H6530333   3.644   7.216   7.003 -0.5522  0.8104 -0.8808
   95MOL    C6630334   3.698   7.083   7.165 -0.3826 -0.4083 -0.8413
   95MOL    C6730335   3.848   7.073   7.134  0.2999  0.0835  0.0437
   95MOL    C6830336   3.922   7.168   7.057 -0.9017 -0.5179  0.4601
   95MOL    C6930337   4.064   7.155   7.040 -0.7696 -0.4593  0.1029
   95MOL   Cl7030338   4.152   7.283   6.966  0.1626 -0.3657  0.0185
   95MOL    C7130339   4.133   7.042   7.092 -0.1220  0.0288 -0.4269
   95MOL    C7230340   4.054   6.940   7.151 -0.2828  0.5085  0.5361
   95MOL    C7330341   3.920   6.957   7.179  1.2759  0.0674  0.2639
   95MOL    C7430342   3.669   7.189   7.268 -0.2308 -0.3213 -0.3099
   95MOL    H7530343   3.666   6.989   7.210  1.2088 -0.8891 -0.6591
   95MOL    H7630344   3.875   7.262   7.033 -0.3393  0.1492  1.8955
   95MOL    H7730345   4.239   7.025   7.089 -0.2344 -0.7465 -0.3655
   95MOL    H7830346   4.105   6.847   7.172  0.1034  0.8800  1.2665
   95MOL    H7930347   3.860   6.892   7.242  1.2377 -0.3473 -0.1938
   95MOL    H8030348   3.764   7.220   7.313  0.8297 -2.1785 -1.2295
   95MOL    H8130349   3.627   7.282   7.229 -1.7902 -0.5551  0.7761
   95MOL    C8230350   3.585   7.138   7.392  0.9187 -0.4443 -0.1310
   95MOL    C8330351   3.653   7.024   7.480  0.6279  0.0304  0.4336
   95MOL    C8430352   3.580   6.901   7.495 -0.3752 -0.0681 -0.2438
   95MOL    C8530353   3.651   6.802   7.566 -0.4202 -0.3022 -0.8052
   95MOL   Cl8630354   3.582   6.654   7.606  0.0756  0.0401  0.3260
   95MOL    C8730355   3.787   6.823   7.609  0.5257  0.1721  0.5795
   95MOL    C8830356   3.850   6.945   7.593 -0.7903  0.1853  0.0058
   95MOL    C8930357   3.786   7.045   7.527 -0.1029 -0.1283 -0.1839
   95MOL    C9030358   3.539   7.254   7.488 -0.4669  0.0563  0.2142
   95MOL    H9130359   3.491   7.106   7.347 -0.2652  2.6128  0.1032
   95MOL    H9230360   3.485   6.888   7.446 -1.4557 -0.5523  1.8938
   95MOL    H9330361   3.839   6.735   7.642  0.1704 -0.4409 -0.4577
   95MOL    H9430362   3.953   6.958   7.624  0.1033  0.5432 -2.9889
   95MOL    H9530363   3.830   7.141   7.502 -0.5318  0.3692  0.8948
   95MOL    H9630364   3.507   7.219   7.586  1.8295 -1.6761  0.3866
   95MOL    H9730365   3.620   7.322   7.514  0.0917 -1.6188  3.0438
   95MOL    C9830366   3.441   7.357   7.426  0.1247  0.0340  0.6750
   95MOL    C9930367   3.300   7.280   7.399 -0.2332  0.2122 -0.9119
   95MOL   C10030368   3.241   7.206   7.498  0.3241  0.4595  0.1382
   95MOL   C10130369   3.118   7.150   7.477  0.4701  0.6636  0.0862
   95MOL  Cl10230370   3.042   7.057   7.606 -0.2237  0.0513  0.1081
   95MOL   C10330371   3.047   7.166   7.357 -0.5687  0.3448  0.5336
   95MOL   C10430372   3.116   7.229   7.250  0.4645 -0.2085  0.0941
   95MOL   C10530373   3.246   7.287   7.273 -0.0032 -0.0718  0.4299
   95MOL   C10630374   3.427   7.477   7.523  0.2710  0.2308  0.4050
   95MOL   H10730375   3.478   7.401   7.334 -1.0088 -2.1877 -0.8747
   95MOL   H10830376   3.286   7.188   7.595 -0.8486  2.5525  1.1092
   95MOL   H10930377   2.947   7.127   7.340 -0.3013 -0.0581 -0.1034
   95MOL   H11030378   3.058   7.245   7.160  0.4141  0.7278  0.2839
   95MOL   H11130379   3.293   7.349   7.199  0.0796 -0.8657 -0.1900
   95MOL   H11230380   3.333   7.523   7.492 -1.6574 -3.5292  0.4373
   95MOL   H11330381   3.389   7.443   7.619 -2.8013 -0.5083 -1.0089
   95MOL   C11430382   3.541   7.586   7.538 -0.2033  0.4176  0.1494
   95MOL   C11530383   3.555   7.674   7.410 -0.4296 -0.3162 -0.1099
   95MOL   C11630384   3.678   7.677   7.341 -0.2494 -0.5156  0.0178
   95MOL   C11730385   3.687   7.746   7.211 -0.7807 -0.0209 -0.2715
   95MOL  Cl11830386   3.835   7.754   7.118 -0.2391  0.0030  0.3199
   95MOL   C11930387   3.576   7.814   7.160 -0.8996  0.6105  0.0006
   95MOL   C12030388   3.457   7.816   7.237 -0.5244  0.3279  0.4552
   95MOL   C12130389   3.447   7.747   7.361 -0.2614 -0.1955 -0.5536
   95MOL   C12230390   3.514   7.675   7.656  0.5597 -0.6766  0.0707
   95MOL   H12330391   3.636   7.534   7.554 -0.4018  0.2903  0.9150
   95MOL   H12430392   3.766   7.626   7.377  1.0558  1.4768 -0.3015
   95MOL   H12530393   3.596   7.855   7.062  1.1981  2.9784  1.3648
   95MOL   H12630394   3.379   7.883   7.203 -1.0159 -0.0982  0.7293
   95MOL   H12730395   3.351   7.758   7.409 -0.3754  1.2351 -1.0911
   95MOL   H12830396   3.417   7.724   7.642  1.3221  0.6715 -0.6179
   95MOL   H12930397   3.505   7.610   7.742  2.0218  0.3889  1.0455
   95MOL   C13030398   3.614   7.795   7.686 -0.8683  0.7280  0.1710
   95MOL   C13130399   3.526   7.891   7.765 -0.0048  0.6329 -0.2707
   95MOL   C13230400   3.459   7.858   7.882  0.2506 -0.6009  0.1977
   95MOL   C13330401   3.376   7.943   7.951 -0.0784  0.1757  0.7118
   95MOL  Cl13430402   3.316   7.908   8.110  0.0682 -0.2915 -0.0565
   95MOL   C13530403   3.346   8.072   7.897 -0.7289 -0.4303 -0.1594
   95MOL   C13630404   3.410   8.108   7.781  0.0792 -0.3521  0.0794
   95MOL   C13730405   3.502   8.020   7.718 -0.5297  0.2379  0.8292
   95MOL   C13830406   3.736   7.759   7.766 -0.2105 -0.5068  0.2252
   95MOL   H13930407   3.640   7.851   7.596  0.2866 -0.1202 -0.0293
   95MOL   H14030408   3.478   7.765   7.933  0.6309 -0.4826  0.2741
   95MOL   H14130409   3.296   8.146   7.956  0.6982  0.3693  0.0697
   95MOL   H14230410   3.404   8.209   7.743 -0.4191 -0.2446  0.4496
   95MOL   H14330411   3.562   8.059   7.637 -0.5659 -1.2740  0.0591
   95MOL   H14430412   3.709   7.724   7.866  0.4869 -0.4124  0.4446
   95MOL   H14530413   3.783   7.679   7.710 -1.2523 -1.0711  0.1385
   95MOL   C14630414   3.852   7.861   7.774  0.0401 -0.3735 -1.5109
   95MOL   C14730415   3.902   7.901   7.907  0.1959 -0.0897  0.2695
   95MOL   C14830416   3.973   8.021   7.923 -0.7956 -0.0528  0.1160
   95MOL   C14930417   4.023   8.060   8.051  1.0630 -0.5689  0.5566
   95MOL  Cl15030418   4.089   8.216   8.080 -0.2043  0.2778  0.2069
   95MOL   C15130419   4.016   7.974   8.158 -0.0559 -0.3955 -0.1131
   95MOL   C15230420   3.951   7.847   8.146  0.8713 -0.4035  0.1311
   95MOL   C15330421   3.903   7.808   8.019  0.1877  0.7246  0.2972
   95MOL   C15430422   3.955   7.853   7.661 -0.7725  0.6306 -0.0534
   95MOL   H15530423   3.799   7.953   7.749 -1.3117 -0.2220  1.6690
   95MOL   H15630424   3.984   8.080   7.834  0.7385  1.1514  1.0795
   95MOL   H15730425   4.049   8.017   8.251  0.6027  0.3523 -0.6805
   95MOL   H15830426   3.944   7.778   8.229  0.0574 -0.4468  0.0299
   95MOL   H15930427   3.854   7.712   8.013  0.8442  0.4124 -0.1082
   95MOL   H16030428   3.906   7.824   7.569 -1.4156 -3.0227  1.3614
   95MOL   H16130429   3.984   7.958   7.646 -0.5121  0.7567  1.2575
   95MOL   C16230430   4.074   7.761   7.697 -0.5491  0.6196 -0.1547
   95MOL   C16330431   4.065   7.623   7.624  0.0392 -0.0816  0.5000
   95MOL   C16430432   4.035   7.606   7.483 -0.2385  0.8371 -0.4337
   95MOL   C16530433   4.021   7.476   7.424 -0.2340 -0.1740 -0.1584
   95MOL  Cl16630434   3.966   7.456   7.263  0.0455 -0.1676 -0.2430
   95MOL   C16730435   4.036   7.362   7.503  0.0482  0.2119  0.2819
   95MOL   C16830436   4.076   7.375   7.637  0.5399  0.3386  0.3778
   95MOL   C16930437   4.092   7.503   7.692 -0.1079 -0.0862  0.3072
   95MOL   C17030438   4.207   7.831   7.668  0.1490  1.0934 -0.1219
   95MOL   H17130439   4.068   7.741   7.804  1.6768 -2.9342 -0.6336
   95MOL   H17230440   4.023   7.693   7.420  1.4662  1.1753 -0.3158
   95MOL   H17330441   4.012   7.265   7.461 -0.3526  0.8954 -1.1065
   95MOL   H17430442   4.098   7.283   7.689  2.3551  0.7820  0.4369
   95MOL   H17530443   4.127   7.510   7.794  1.2106 -2.1857  0.0271
   95MOL   H17630444   4.277   7.776   7.605  1.4626  1.8029  0.6958
   95MOL   H17730445   4.193   7.929   7.621 -3.9040  0.8153  0.2782
   95MOL   C17830446   4.293   7.857   7.799  0.0666 -0.1548  0.3079
   95MOL   C17930447   4.325   7.722   7.873  0.4165 -1.1001 -1.3023
   95MOL   C18030448   4.412   7.639   7.817  0.2279  0.2446 -0.1079
   95MOL   C18130449   4.444   7.518   7.876 -0.5723  0.3269 -0.0222
   95MOL  Cl18230450   4.552   7.410   7.793  0.2627  0.3821  0.4189
   95MOL   C18330451   4.386   7.479   7.997 -0.4706  0.2946  0.5750
   95MOL   C18430452   4.298   7.566   8.060  0.1388 -0.3323 -0.3579
   95MOL   C18530453   4.271   7.691   7.997 -0.1290 -0.5349 -1.0625
   95MOL   C18630454   4.416   7.944   7.776 -0.0108 -0.1563  0.1307
   95MOL   H18730455   4.229   7.909   7.870  1.9164  0.4893  1.5542
   95MOL   H18830456   4.456   7.673   7.724  0.5865  0.5401  0.1684
   95MOL   H18930457   4.398   7.379   8.037  3.6641  0.1348 -0.7665
   95MOL   H19030458   4.240   7.533   8.145  1.3927 -0.5831  0.4122
   95MOL   H19130459   4.194   7.750   8.045  1.9875 -0.4143  2.3272
   95MOL   H19230460   4.487   7.895   7.710 -0.0490 -2.7593  1.9604
   95MOL   H19330461   4.396   8.026   7.707 -1.3317 -2.4105 -2.2558
   95MOL   C19430462   4.486   7.999   7.904 -0.2262 -0.4015 -0.2693
   95MOL   C19530463   4.635   8.015   7.879 -0.0406 -0.0382  0.8952
   95MOL   C19630464   4.690   8.137   7.824  0.0267  0.2303 -0.3946
   95MOL   C19730465   4.827   8.152   7.791  0.0689 -0.4027  0.9062
   95MOL  Cl19830466   4.888   8.298   7.733 -0.3475  0.2326 -0.4401
   95MOL   C19930467   4.915   8.045   7.819  0.0366 -0.3489 -0.2705
   95MOL   C20030468   4.867   7.927   7.884  0.1026  0.0501  0.4786
   95MOL   C20130469   4.730   7.916   7.908 -0.1309  0.6185 -0.6520
   95MOL   C20230470   4.418   8.124   7.974 -0.3420  0.2228 -0.0517
   95MOL   H20330471   4.478   7.923   7.981 -1.7051 -1.3463 -1.3281
   95MOL   H20430472   4.631   8.221   7.791 -0.9672 -0.1339  0.4269
   95MOL   H20530473   5.018   8.056   7.789 -0.1012  1.1202 -0.2301
   95MOL   H20630474   4.938   7.853   7.918  2.6358  1.3374 -1.7828
   95MOL   H20730475   4.707   7.827   7.966  3.0267  0.4909  0.5273
   95MOL   H20830476   4.415   8.206   7.903 -3.5245  0.5238  0.3874
   95MOL   H20930477   4.317   8.093   7.998  0.1845 -2.0620 -0.6270
   95MOL   C21030478   4.488   8.151   8.118 -1.0124  0.6538 -0.4058
   95MOL   C21130479   4.592   8.267   8.117  0.1923 -0.0120 -0.0588
   95MOL   C21230480   4.544   8.406   8.123 -0.0461  0.1033 -0.5981
   95MOL   C21330481   4.637   0.076   8.121  0.5142 -0.7191  0.0281
   95MOL  Cl21430482   4.582   0.235   8.126 -0.1632 -0.2110 -0.3149
   95MOL   C21530483   4.774   0.049   8.119  0.2097 -0.0068  0.0762
   95MOL   C21630484   4.819   8.345   8.109 -0.7748 -0.1518 -0.0040
   95MOL   C21730485   4.730   8.237   8.121 -0.5611 -0.9639 -0.5152
   95MOL   C21830486   4.399   8.149   8.242  0.5471 -0.2706  0.2576
   95MOL   H21930487   4.545   8.060   8.140 -1.7671  0.1886 -0.3690
   95MOL   H22030488   4.438   8.427   8.133  0.1515  0.9623 -0.3028
   95MOL   H22130489   4.836   0.137   8.108 -1.4833  1.1699 -0.2436
   95MOL   H22230490   4.923   8.323   8.093 -0.7916 -0.5317  0.3868
   95MOL   H22330491   4.762   8.134   8.113 -1.9143 -1.4806  0.5617
   95MOL   H22430492   4.337   8.238   8.243 -0.4861 -0.9541 -1.3040
   95MOL   H22530493   4.343   8.058   8.222  1.2138 -0.8173  0.8273
   95MOL   C22630494   4.473   8.135   8.377 -0.5207  0.2309  0.3223
   95MOL   C22730495   4.391   8.175   0.057 -0.8237 -0.7059 -0.5543
   95MOL   C22830496   4.442   8.280   0.137 -0.8577  0.4516  0.2043
   95MOL   C22930497   4.369   8.326   0.250 -0.3611 -0.4887  1.0130
   95MOL  Cl23030498   4.451   0.006   0.355  0.3119  0.1497 -0.1480
   95MOL   C23130499   4.245   8.265   0.278  0.9297 -0.5531  0.0116
   95MOL   C23230500   4.195   8.158   0.194 -0.1388 -0.4825  0.0078
   95MOL   C23330501   4.273   8.113   0.085 -0.0927  0.0016 -0.5240
   95MOL   C23430502   4.526   7.994   8.403 -0.3740 -0.6957 -0.3784
   95MOL   H23530503   4.553   8.207   8.363 -1.4199  0.8881 -1.6721
   95MOL   H23630504   4.540   8.315   0.110  0.0611 -1.5514  0.9012
   95MOL   H23730505   4.186   8.301   0.361  0.2509  0.9535 -1.1155
   95MOL   H23830506   4.100   8.114   0.223  0.6554 -2.4953 -0.3550
   95MOL   H23930507   4.247   8.027   0.025  2.4219 -0.7025 -0.6701
   95MOL   H24030508   4.494   7.963   0.067 -0.0543 -1.6410 -0.5668
   95MOL   H24130509   4.476   7.929   8.330  0.7740 -0.1031 -1.7210
   95MOL   C24230510   4.674   7.963   8.387 -0.4086  0.4171  0.0752
   95MOL   C24330511   4.747   8.035   0.063  0.2724 -0.2108 -0.6257
   95MOL   C24430512   4.756   7.989   0.194  0.8223  0.5382  0.1687
   95MOL   C24530513   4.822   8.069   0.293  0.7498 -0.1332  0.0809
   95MOL  Cl24630514   4.815   8.018   0.460  0.4734 -0.1820 -0.2342
   95MOL   C24730515   4.877   8.194   0.268  0.0770  0.8768 -0.3954
   95MOL   C24830516   4.873   8.237   0.137  0.1857 -0.1382  0.7581
   95MOL   C24930517   4.817   8.159   0.031 -0.3105  0.1935  0.4763
   95MOL   C25030518   4.715   7.808   8.368  0.4976 -0.8827 -0.5687
   95MOL   H25130519   4.707   8.015   8.297 -0.0670  0.3020  0.1362
   95MOL   H25230520   4.703   7.902   0.229  1.2175 -0.4549 -1.6578
   95MOL   H25330521   4.932   8.247   0.345 -0.8279  1.4331 -0.1276
   95MOL   H25430522   4.917   8.333   0.113 -1.7524  0.1648 -1.8853
   95MOL   H25530523   4.809   8.197   8.366 -2.4073 -2.7857 -0.5544
   95MOL   H25630524   4.681   7.754   0.021 -2.0098  0.0664 -0.9116
   95MOL   H25730525   4.661   7.775   8.279 -1.1392  0.7692 -0.2270
   95MOL   C25830526   4.864   7.764   8.362 -0.3148  0.0672  0.0452
   95MOL   C25930527   4.864   7.611   8.340  0.2736  0.1312  0.4745
   95MOL   C26030528   4.764   7.534   8.278  0.0556 -0.2576  0.3874
   95MOL   C26130529   4.784   7.396   8.258  0.0769  0.0323  0.3342
   95MOL  Cl26230530   4.676   7.315   8.148 -0.0827  0.1049  0.0399
   95MOL   C26330531   4.894   7.327   8.316  0.7189 -0.6093  0.1592
   95MOL   C26430532   4.995   7.401   8.387  0.7429  0.0098  0.3270
   95MOL   C26530533   4.979   7.543   8.397 -0.5753  0.0045  0.3877
   95MOL   C26630534   4.935   7.836   8.236  0.2403  0.2713 -0.1108
   95MOL   H26730535   4.920   7.781   0.019  1.5084 -1.8477 -0.6665
   95MOL   H26830536   4.676   7.572   8.227 -0.0205  3.3970  3.0059
   95MOL   H26930537   4.910   7.221   8.303 -1.6472 -0.7107 -2.3554
   95MOL   H27030538   5.079   7.348   8.430  0.3431 -0.8195  0.0925
   95MOL   H27130539   5.057   7.597   0.013 -2.3078  1.7168  1.3121
   95MOL   H27230540   4.986   7.756   8.181  1.5681 -0.6404  2.3664
   95MOL   H27330541   4.861   7.871   8.165  2.7120  1.5238 -2.1319
   95MOL   C27430542   5.042   7.948   8.276  0.0882  0.0591 -0.4353
   95MOL   C27530543   5.156   7.892   8.367  0.6053  0.3719  0.0725
   95MOL   C27630544   5.156   7.950   0.064 -0.6278  0.8883 -0.2215
   95MOL   C27730545   5.241   7.903   0.158  0.6773 -0.0806  0.0160
   95MOL  Cl27830546   5.246   7.975   0.316  0.5100  0.1907 -0.3657
   95MOL   C27930547   5.327   7.794   0.121  0.4651  0.1347 -0.4837
   95MOL   C28030548   5.335   7.746   8.422  0.2738 -0.8546  0.3193
   95MOL   C28130549   5.253   7.796   8.327 -0.4150  0.6906  0.2383
   95MOL   C28230550   5.090   8.030   8.152  0.0002  0.1371 -0.2371
   95MOL   H28330551   4.983   8.015   8.339  1.1326  1.2200 -0.6706
   95MOL   H28430552   5.084   8.026   0.088 -0.1371  0.9996  0.9157
   95MOL   H28530553   5.386   7.746   0.197  0.6180 -0.9677 -1.2767
   95MOL   H28630554   5.414   7.677   8.394  0.3453 -0.3634 -0.6985
   95MOL   H28730555   5.256   7.758   8.226  3.1062  3.1836 -0.6822
   95MOL   H28830556   5.120   7.953   8.081  1.0385 -0.6722  1.0538
   95MOL   H28930557   5.002   8.075   8.107  1.8095  2.5592 -1.4614
   95MOL   C29030558   5.207   8.127   8.179 -0.1847  0.3576  0.1722
   95MOL   C29130559   5.251   8.183   8.051 -0.6283  0.2003  0.5686
   95MOL   C29230560   5.339   8.106   7.969 -0.1158  0.3648  0.5336
   95MOL   C29330561   5.372   8.153   7.843 -0.6926 -0.4008 -0.3152
   95MOL  Cl29430562   5.475   8.063   7.744  0.2223 -0.3181 -0.0352
   95MOL   C29530563   5.329   8.277   7.798  0.6625 -0.5057 -0.9443
   95MOL   C29630564   5.243   8.356   7.878  0.3474 -0.5242 -0.2376
   95MOL   C29730565   5.197   8.310   8.005 -0.0071  0.0207  0.0785
   95MOL   C29830566   5.166   8.237   8.282 -0.6860 -0.6651 -0.4079
   95MOL   H29930567   5.285   8.068   8.227  0.5817  1.3792  0.2024
   95MOL   H30030568   5.380   8.009   7.996 -1.1613  0.2782  1.9313
   95MOL   H30130569   5.356   8.316   7.701 -0.1130  1.8708 -0.2507
   95MOL   H30230570   5.208   0.014   7.836  0.0379 -1.2133 -1.5303
   95MOL   H30330571   5.126   8.369   8.060  0.0371  1.7730 -1.6628
   95MOL   H30430572   5.095   8.302   8.232  0.1240  0.4213 -0.1654
   95MOL   H30530573   5.114   8.195   8.368  0.5594  1.6299  1.5068
   95MOL   C30630574   5.288   8.319   8.342  0.5678 -0.5918 -0.5024
   95MOL   C30730575   5.234   8.413   0.014 -1.5201  0.7805 -0.3545
   95MOL   C30830576   5.221   8.366   0.145  0.2241  0.4394 -0.0471
   95MOL   C30930577   5.168   0.017   0.240 -0.4443  0.9004 -0.2636
   95MOL  Cl31030578   5.162   8.388   0.402 -0.0067  0.4994  0.1356
   95MOL   C31130579   5.120   0.149   0.200  0.2919  0.0594 -0.2038
   95MOL   C31230580   5.116   0.187   0.064 -0.1040  0.0101  0.3281
   95MOL   C31330581   5.187   0.106   8.406  0.6883  0.1025 -0.3560
   95MOL   C31430582   5.412   8.241   8.396 -0.5118 -0.2251  0.3310
   95MOL   H31530583   5.330   8.398   8.279  2.4533 -1.3589 -0.2553
   95MOL   H31630584   5.256   8.271   0.183 -2.0560  0.7752  3.1109
   95MOL   H31730585   5.085   0.220   0.274  0.8057  0.5931 -0.4679
   95MOL   H31830586   5.100   0.291   0.036  0.5236  0.1780  0.5710
   95MOL   H31930587   5.202   0.140   8.305  1.3933 -0.9334 -0.6187
   95MOL   H32030588   5.386   8.164   0.034 -1.2129  0.6819  1.0494
   95MOL   H32130589   5.467   8.181   8.324 -1.3540 -2.7650  1.7417
   95MOL   H32230590   5.477   8.315   0.007  0.2413 -0.6491 -0.0581
   96MOL     C130591   5.980   3.036   3.738  0.0317  0.2940  0.4248
   96MOL     C230592   5.866   3.038   3.836 -0.2341  0.2286 -0.4219
   96MOL     C330593   5.855   2.937   3.931 -0.2996 -0.6967 -0.5449
   96MOL     C430594   5.752   2.937   4.026  0.8613 -0.0125 -0.0864
   96MOL    Cl530595   5.756   2.816   4.149  0.3561  0.1308 -0.1632
   96MOL     C630596   5.658   3.039   4.020 -0.3386  0.2982 -0.4671
   96MOL     C730597   5.671   3.146   3.926  0.6148  0.2838  0.4999
   96MOL     C830598   5.779   3.150   3.841  0.0290 -0.1701  0.1439
   96MOL     C930599   6.071   3.162   3.766 -0.4229  0.4006  0.0002
   96MOL    H1030600   5.925   3.055   3.646  0.1759  0.3079  0.3419
   96MOL    H1130601   5.923   2.855   3.917  2.0676  1.2506 -0.6867
   96MOL    H1230602   5.580   3.030   4.094  0.1110  0.9446  0.0992
   96MOL    H1330603   5.595   3.222   3.941 -1.7055 -2.3216  2.5583
   96MOL    H1430604   5.792   3.245   3.792 -0.5627  0.0670  0.4427
   96MOL    H1530605   6.139   3.163   3.681  1.0633  1.2433  1.1704
   96MOL    H1630606   6.016   3.256   3.761 -0.6365  0.2833  0.1109
   96MOL    H1730607   6.035   2.942   3.736 -0.0270  0.2552  0.5941
   96MOL    C1830608   6.154   3.159   3.899  0.3857  0.3121  0.3075
   96MOL    C1930609   6.303   3.199   3.867 -0.0948 -0.4488  0.0997
   96MOL    C2030610   6.410   3.146   3.939  0.1430 -0.1722 -0.4111
   96MOL    C2130611   6.544   3.192   3.926 -0.6065  0.3457 -0.3893
   96MOL   Cl2230612   6.667   3.118   4.023 -0.1228 -0.1898  0.4014
   96MOL    C2330613   6.572   3.299   3.841  0.2505 -0.5292 -0.4074
   96MOL    C2430614   6.468   3.366   3.772 -0.4818 -0.0990 -0.0749
   96MOL    C2530615   6.339   3.317   3.789  0.4918 -0.4795 -0.5253
   96MOL    C2630616   6.089   3.254   4.007 -0.3815  0.2599 -0.5564
   96MOL    H2730617   6.141   3.056   3.933 -1.5750  0.8578  1.2248
   96MOL    H2830618   6.388   3.065   4.007  2.4217  0.2821  0.9050
   96MOL    H2930619   6.672   3.338   3.826  0.0609  0.3618  0.6068
   96MOL    H3030620   6.498   3.460   3.729 -2.0385  0.2509 -0.4390
   96MOL    H3130621   6.260   3.370   3.738  0.7989 -0.6665 -1.1938
   96MOL    H3230622   6.097   3.359   3.978  0.7489  0.0878 -0.8679
   96MOL    H3330623   5.982   3.234   3.996  0.0879 -0.9564 -3.2395
   96MOL    C3430624   6.134   3.238   4.157  0.0609 -0.3220  0.0244
   96MOL    C3530625   6.125   3.372   4.226  0.4879  0.1170  0.2335
   96MOL    C3630626   6.001   3.424   4.261  0.4676 -0.7666 -0.3320
   96MOL    C3730627   5.985   3.552   4.323  0.2608  0.3707 -0.5440
   96MOL   Cl3830628   5.831   3.608   4.366  0.3215 -0.1853 -0.0925
   96MOL    C3930629   6.101   3.628   4.352 -0.0130  0.3000 -0.2645
   96MOL    C4030630   6.226   3.570   4.328 -0.1028  0.4801 -0.1414
   96MOL    C4130631   6.238   3.445   4.270 -0.5505  0.4574 -0.0213
   96MOL    C4230632   6.051   3.123   4.228  0.5045 -0.0483 -0.7205
   96MOL    H4330633   6.238   3.204   4.161  0.1117 -0.2189 -0.3631
   96MOL    H4430634   5.912   3.368   4.239 -1.1060  1.9983 -1.2516
   96MOL    H4530635   6.085   3.728   4.389  1.3424  0.3883  0.1306
   96MOL    H4630636   6.316   3.625   4.354 -0.4041  0.5311  0.8189
   96MOL    H4730637   6.337   3.409   4.249 -0.0774  0.9886  1.2626
   96MOL    H4830638   5.955   3.147   4.274  1.7001  4.0921 -0.1966
   96MOL    H4930639   6.053   3.049   4.148  4.2752  3.6324 -4.2514
   96MOL    C5030640   6.128   3.061   4.350 -0.2159  1.1751  0.2982
   96MOL    C5130641   6.089   3.143   4.472  0.0141 -0.4505 -0.4817
   96MOL    C5230642   6.180   3.238   4.522 -0.8012 -0.1304 -0.3473
   96MOL    C5330643   6.143   3.325   4.630 -0.1211 -0.7102 -0.0872
   96MOL   Cl5430644   6.237   3.469   4.664 -0.2558  0.1452  0.3801
   96MOL    C5530645   6.031   3.303   4.711 -0.2459 -0.1395  0.8567
   96MOL    C5630646   5.935   3.212   4.659  0.6025  0.2853 -0.0793
   96MOL    C5730647   5.965   3.129   4.548  0.4914  0.6258  0.4133
   96MOL    C5830648   6.090   2.915   4.378 -0.6484 -0.2293  0.7009
   96MOL    H5930649   6.237   3.063   4.344 -0.1817  1.5745  0.9576
   96MOL    H6030650   6.268   3.255   4.462 -0.7644  1.3257  0.1205
   96MOL    H6130651   6.007   3.359   4.800 -1.9130  1.2854 -0.4503
   96MOL    H6230652   5.841   3.214   4.713  2.0059  2.1096  2.4562
   96MOL    H6330653   5.890   3.057   4.519 -0.3625  0.6312  2.5425
   96MOL    H6430654   6.124   2.895   4.480 -1.9054  2.4356  1.6714
   96MOL    H6530655   5.981   2.912   4.380 -0.9241  5.1393 -0.7804
   96MOL    C6630656   6.141   2.806   4.275 -0.2824  0.0946 -0.0182
   96MOL    C6730657   6.288   2.808   4.236  0.6621 -0.3069 -0.2970
   96MOL    C6830658   6.321   2.815   4.102 -0.5957  0.3393 -0.6914
   96MOL    C6930659   6.451   2.798   4.054  0.2748  0.8998 -0.1656
   96MOL   Cl7030660   6.486   2.779   3.891 -0.1328 -0.2722 -0.2662
   96MOL    C7130661   6.557   2.789   4.150 -0.3027 -0.3446 -0.5367
   96MOL    C7230662   6.535   2.803   4.289 -0.1404 -0.7674  0.2285
   96MOL    C7330663   6.398   2.806   4.330  0.1548  0.1262 -0.2792
   96MOL    C7430664   6.091   2.669   4.327 -0.1980  0.6382  0.0540
   96MOL    H7530665   6.080   2.818   4.185 -2.6318  4.5735  1.9827
   96MOL    H7630666   6.246   2.810   4.024  0.7764 -1.5085 -1.9175
   96MOL    H7730667   6.662   2.782   4.123 -0.4858  0.8715 -1.6267
   96MOL    H7830668   6.619   2.814   4.357  0.6231 -0.2713 -0.7845
   96MOL    H7930669   6.377   2.816   4.435  1.0125 -0.7232 -0.0286
   96MOL    H8030670   6.143   2.655   4.422  0.1285 -2.1157 -0.4802
   96MOL    H8130671   5.988   2.664   4.361  0.6668 -0.5299  2.6007
   96MOL    C8230672   6.140   2.549   4.247 -0.4095  1.1413 -0.2202
   96MOL    C8330673   6.121   2.427   4.331  0.1482 -0.2821 -0.3744
   96MOL    C8430674   6.226   2.390   4.415  0.7516 -0.7943 -0.5441
   96MOL    C8530675   6.201   2.295   4.517 -0.2722 -0.5917 -0.2692
   96MOL   Cl8630676   6.302   2.265   4.650 -0.1140  0.2060 -0.1047
   96MOL    C8730677   6.078   2.229   4.522  0.2351 -0.0511  0.2580
   96MOL    C8830678   5.975   2.257   4.426  0.0861  0.7607 -0.5349
   96MOL    C8930679   5.993   2.370   4.344 -0.3002  0.5382 -0.0054
   96MOL    C9030680   6.086   2.522   4.102 -0.3319  0.3071 -0.5086
   96MOL    H9130681   6.247   2.567   4.240 -0.1652  0.6551  1.9845
   96MOL    H9230682   6.326   2.429   4.405  1.1995 -1.5878  0.7434
   96MOL    H9330683   6.050   2.153   4.593  0.0196 -0.3024 -0.0962
   96MOL    H9430684   5.882   2.204   4.436 -0.3556  1.8463  1.1778
   96MOL    H9530685   5.916   2.409   4.279 -1.1289  1.3808  1.4630
   96MOL    H9630686   5.982   2.491   4.091 -0.0901 -0.9303  0.6495
   96MOL    H9730687   6.078   2.617   4.048 -0.8183 -0.2379 -1.4109
   96MOL    C9830688   6.183   2.445   4.011 -0.0688 -0.2472  0.2533
   96MOL    C9930689   6.206   2.299   4.050  0.4216  0.0648 -0.5338
   96MOL   C10030690   6.336   2.253   4.083 -0.0090 -0.6352 -0.1607
   96MOL   C10130691   6.355   2.120   4.124  0.1519 -0.3397  0.2648
   96MOL  Cl10230692   6.507   2.058   4.162 -0.0751 -0.4364  0.2773
   96MOL   C10330693   6.245   2.035   4.147  0.5743  0.2991  0.3837
   96MOL   C10430694   6.114   2.079   4.112  0.5583 -0.0753  1.2284
   96MOL   C10530695   6.098   2.209   4.066  0.2409 -0.4248 -0.3294
   96MOL   C10630696   6.136   2.453   3.867  0.4772 -0.3643 -0.0704
   96MOL   H10730697   6.280   2.496   4.012  1.9877 -3.9966  1.3978
   96MOL   H10830698   6.412   2.330   4.091 -1.3876  0.7902 -0.4900
   96MOL   H10930699   6.257   1.936   4.187  1.5241 -0.1042 -0.8782
   96MOL   H11030700   6.026   2.019   4.126 -0.4833 -0.8017 -6.2151
   96MOL   H11130701   6.000   2.250   4.047 -0.1762 -0.6597  1.2127
   96MOL   H11230702   6.037   2.407   3.860  0.4803 -0.4369  0.3565
   96MOL   H11330703   6.125   2.558   3.840 -3.2586  0.3675  3.8134
   96MOL   C11430704   6.213   2.379   3.756  0.1724  0.1383 -0.0086
   96MOL   C11530705   6.132   2.358   3.632  0.1917  0.3139  0.2131
   96MOL   C11630706   6.147   2.237   3.553  0.2136 -0.1365  0.1081
   96MOL   C11730707   6.070   2.215   3.438 -0.1449 -0.0391  0.1480
   96MOL  Cl11830708   6.095   2.079   3.334 -0.5603  0.1932  0.1662
   96MOL   C11930709   5.972   2.308   3.397  0.0562 -0.0971 -0.8911
   96MOL   C12030710   5.969   2.432   3.467 -0.4188 -0.3616  0.0854
   96MOL   C12130711   6.044   2.456   3.576 -0.4184  0.4943  0.1492
   96MOL   C12230712   6.342   2.457   3.717  0.1009 -0.5493  0.0577
   96MOL   H12330713   6.230   2.275   3.784  0.6084 -0.2778 -1.7370
   96MOL   H12430714   6.217   2.162   3.587  1.4928  1.8955  2.1451
   96MOL   H12530715   5.908   2.294   3.312  0.5045  0.1705 -1.2745
   96MOL   H12630716   5.905   2.506   3.421 -0.2822 -0.0921  0.3321
   96MOL   H12730717   6.028   2.554   3.619 -1.7028  1.5523 -2.5349
   96MOL   H12830718   6.335   2.520   3.629 -1.1658  0.3444  0.7844
   96MOL   H12930719   6.355   2.537   3.790 -0.2366  0.4151 -0.9322
   96MOL   C13030720   6.471   2.371   3.711 -0.7256 -0.2564 -0.1464
   96MOL   C13130721   6.476   2.257   3.602 -0.3253  0.4556  0.6807
   96MOL   C13230722   6.466   2.285   3.464  0.5825  0.4451  0.2316
   96MOL   C13330723   6.462   2.182   3.366 -0.4674 -0.7936 -0.5907
   96MOL  Cl13430724   6.428   2.225   3.203 -0.1319 -0.2207 -0.7301
   96MOL   C13530725   6.466   2.049   3.402 -0.1126  0.4082  0.1560
   96MOL   C13630726   6.477   2.015   3.538  0.2496  0.0840 -0.2721
   96MOL   C13730727   6.480   2.122   3.637  0.0272 -0.6565 -0.1918
   96MOL   C13830728   6.602   2.444   3.717 -0.5330  0.0701  0.0936
   96MOL   H13930729   6.480   2.322   3.808  0.3324 -1.7683 -0.9937
   96MOL   H14030730   6.461   2.388   3.431  0.1339  0.8516  1.5250
   96MOL   H14130731   6.448   1.963   3.339 -1.8670 -0.0533  1.2630
   96MOL   H14230732   6.464   1.911   3.565  1.5155 -0.0917 -0.3343
   96MOL   H14330733   6.476   2.089   3.740  1.2684  1.1921  0.4837
   96MOL   H14430734   6.641   2.469   3.618  2.8067 -1.3517  0.9713
   96MOL   H14530735   6.574   2.540   3.760 -1.0699 -0.3005  0.5870
   96MOL   C14630736   6.718   2.383   3.798  0.4140  0.0423 -0.1550
   96MOL   C14730737   6.853   2.431   3.734  0.5374  0.7925  0.0266
   96MOL   C14830738   6.930   2.351   3.649 -0.3784 -0.2493 -0.2287
   96MOL   C14930739   7.054   2.390   3.590 -0.7475 -0.2613 -0.5655
   96MOL  Cl15030740   7.141   2.275   3.495  0.3136 -0.0821  0.3471
   96MOL   C15130741   7.108   2.512   3.614 -1.1772 -0.3634 -0.1436
   96MOL   C15230742   7.031   2.598   3.694  0.0347  0.4337  0.2020
   96MOL   C15330743   6.907   2.560   3.754 -0.0251  0.2737  0.5744
   96MOL   C15430744   6.705   2.418   3.954 -0.0366 -0.6261 -0.2365
   96MOL   H15530745   6.709   2.276   3.782  1.8298 -0.3598  1.5263
   96MOL   H15630746   6.887   2.254   3.633 -1.2935 -0.3037  2.2507
   96MOL   H15730747   7.193   2.552   3.561 -1.9017  2.8155  0.9906
   96MOL   H15830748   7.064   2.696   3.725  0.2033  0.9328 -1.5243
   96MOL   H15930749   6.851   2.630   3.814  2.1789  2.4998  0.1391
   96MOL   H16030750   6.694   2.525   3.971  1.9166 -0.6765  1.6300
   96MOL   H16130751   6.614   2.367   3.986  0.6242 -1.4290  0.4107
   96MOL   C16230752   6.823   2.377   4.047  0.8447 -0.0059 -0.5395
   96MOL   C16330753   6.797   2.436   4.188  0.5797  0.2036 -0.0748
   96MOL   C16430754   6.872   2.552   4.230 -0.7518  0.3011 -0.2906
   96MOL   C16530755   6.851   2.608   4.361 -0.3247 -0.2503  0.5283
   96MOL  Cl16630756   6.944   2.734   4.421 -0.1585  0.4076  0.0442
   96MOL   C16730757   6.760   2.544   4.440 -1.2102 -0.4102 -0.7436
   96MOL   C16830758   6.676   2.441   4.404  0.0804  0.3561  0.0144
   96MOL   C16930759   6.695   2.384   4.278  0.9822 -0.3310 -0.4163
   96MOL   C17030760   6.850   2.224   4.036  0.3143 -0.3435 -0.2265
   96MOL   H17130761   6.909   2.427   4.003 -0.3211 -0.7480 -3.8206
   96MOL   H17230762   6.929   2.609   4.158 -0.8846  1.9238  0.8536
   96MOL   H17330763   6.745   2.581   4.540 -2.9719  0.4163 -1.2898
   96MOL   H17430764   6.611   2.390   4.474  0.5561 -0.5614 -0.2063
   96MOL   H17530765   6.633   2.300   4.251 -0.4746  0.2889  0.9442
   96MOL   H17630766   6.847   2.174   4.133 -0.1446 -1.3730 -0.7616
   96MOL   H17730767   6.778   2.173   3.971 -1.8674  1.3295  0.8115
   96MOL   C17830768   6.992   2.184   3.982  0.5382  0.3427  0.6683
   96MOL   C17930769   7.104   2.255   4.062  1.3866 -0.0245  0.2095
   96MOL   C18030770   7.190   2.340   3.989  0.3093  0.7080  0.2877
   96MOL   C18130771   7.280   2.422   4.063  0.1023 -0.4614  0.9837
   96MOL  Cl18230772   7.368   2.545   3.982 -0.3550  0.0859 -0.1991
   96MOL   C18330773   7.297   2.407   4.206 -0.1943 -0.1941 -0.0404
   96MOL   C18430774   7.218   2.311   4.273 -0.1219 -0.6161 -0.2353
   96MOL   C18530775   7.118   2.235   4.204 -0.6999  0.8341  0.1708
   96MOL   C18630776   7.030   2.032   3.986 -0.3275  0.7113 -0.6008
   96MOL   H18730777   6.988   2.213   3.877  0.5054 -1.2132  0.2363
   96MOL   H18830778   7.181   2.348   3.882  1.8202 -1.1845 -0.0176
   96MOL   H18930779   7.362   2.470   4.263  0.0485 -0.7757  0.3308
   96MOL   H19030780   7.223   2.305   4.381 -3.8454  0.9506  0.0840
   96MOL   H19130781   7.068   2.158   4.261 -1.6863  1.1958 -0.1787
   96MOL   H19230782   7.138   2.019   3.971  0.0740  2.9373  0.2135
   96MOL   H19330783   7.011   2.008   4.090 -2.3547 -0.3413 -1.1936
   96MOL   C19430784   6.950   1.941   3.891  0.0052 -0.2902 -0.1419
   96MOL   C19530785   6.986   1.951   3.743 -0.3780  0.1471 -0.9379
   96MOL   C19630786   6.883   1.979   3.657 -0.8332 -0.1536  0.3705
   96MOL   C19730787   6.912   1.987   3.516 -0.1174  0.1592  0.2994
   96MOL  Cl19830788   6.780   2.026   3.403 -0.3605 -0.2252 -0.4633
   96MOL   C19930789   7.035   1.941   3.471 -0.6011  1.0930  0.6311
   96MOL   C20030790   7.143   1.914   3.563  0.9254  0.4458 -0.4522
   96MOL   C20130791   7.120   1.934   3.700  0.3101 -0.8884  0.3669
   96MOL   C20230792   6.979   1.796   3.936 -0.3791 -1.0841 -0.6175
   96MOL   H20330793   6.845   1.962   3.907 -0.3279 -0.6720 -1.7981
   96MOL   H20430794   6.784   1.997   3.694 -0.7799  1.0262 -0.0208
   96MOL   H20530795   7.041   1.932   3.364  2.7436 -3.1551  1.0339
   96MOL   H20630796   7.243   1.893   3.527  0.9093  1.1659 -0.9349
   96MOL   H20730797   7.197   1.918   3.774  1.6300 -1.8021 -1.1612
   96MOL   H20830798   7.085   1.780   3.915 -0.5956 -1.3683 -1.4797
   96MOL   H20930799   6.981   1.790   4.045  0.6052 -1.8306 -0.6705
   96MOL   C21030800   6.887   1.684   3.902  0.2776 -0.0694  0.5811
   96MOL   C21130801   6.742   1.722   3.927 -0.8903  0.5526 -0.0911
   96MOL   C21230802   6.699   1.714   4.062  0.5936 -0.4067  0.0592
   96MOL   C21330803   6.562   1.737   4.105 -0.5925  0.5381  0.0958
   96MOL  Cl21430804   6.513   1.737   4.272  0.1176 -0.0906  0.0050
   96MOL   C21530805   6.475   1.773   4.002  0.2378  0.1873  0.3264
   96MOL   C21630806   6.520   1.798   3.868 -1.0114 -0.3029  0.1804
   96MOL   C21730807   6.657   1.764   3.829  0.4252 -0.9874  0.0051
   96MOL   C21830808   6.910   1.623   3.759  0.1970 -0.3117 -0.0181
   96MOL   H21930809   6.911   1.605   3.973 -2.9103  0.6009  2.5212
   96MOL   H22030810   6.775   1.683   4.133  1.9857  2.7206  0.0195
   96MOL   H22130811   6.368   1.776   4.016  0.2384  0.6056  0.2502
   96MOL   H22230812   6.445   1.826   3.795 -0.5407  0.0937 -0.1585
   96MOL   H22330813   6.682   1.786   3.726 -1.1505  1.8009  0.1924
   96MOL   H22430814   6.842   1.543   3.729 -1.2242 -0.0588  2.3385
   96MOL   H22530815   6.891   1.698   3.683  2.5298  0.5141  0.1872
   96MOL   C22630816   7.050   1.560   3.732  0.1023  0.0506 -0.3960
   96MOL   C22730817   7.101   1.475   3.850  0.8296  0.1283 -0.6002
   96MOL   C22830818   7.031   1.355   3.886  0.4019 -0.2902  0.1898
   96MOL   C22930819   7.088   1.270   3.975 -0.4696  0.2192  0.2765
   96MOL  Cl23030820   7.013   1.117   3.990  0.5136  0.2953 -0.0441
   96MOL   C23130821   7.211   1.300   4.044  0.0963  0.0189  0.4861
   96MOL   C23230822   7.268   1.430   4.024  0.0518  0.7869 -0.1154
   96MOL   C23330823   7.213   1.509   3.923 -0.1568 -0.5933  0.0202
   96MOL   C23430824   7.048   1.481   3.605 -0.3222  0.3518 -0.0459
   96MOL   H23530825   7.113   1.648   3.715 -1.9446  2.0463  1.9340
   96MOL   H23630826   6.944   1.316   3.835  1.3692 -1.4972 -0.5659
   96MOL   H23730827   7.260   1.230   4.110  0.6459 -0.2783 -0.2418
   96MOL   H23830828   7.354   1.454   4.084  1.5131 -0.0767 -1.7928
   96MOL   H23930829   7.263   1.598   3.889 -0.7112  0.4329  1.8185
   96MOL   H24030830   6.970   1.405   3.602  0.9103 -1.0428  1.8858
   96MOL   H24130831   7.012   1.546   3.525 -0.8792  0.5922  0.4007
   96MOL   C24230832   7.176   1.406   3.555 -0.4149  0.0791  0.3235
   96MOL   C24330833   7.140   1.315   3.430 -0.2414  0.0332 -0.1518
   96MOL   C24430834   7.205   1.190   3.416 -0.2370 -0.0900 -0.2009
   96MOL   C24530835   7.180   1.106   3.307  0.9744  0.3488  0.4260
   96MOL  Cl24630836   7.259   0.955   3.306 -0.0441 -0.1116 -0.0417
   96MOL   C24730837   7.094   1.152   3.200  1.0363  0.2446 -0.7808
   96MOL   C24830838   7.033   1.274   3.206 -0.0398 -0.5929 -0.9215
   96MOL   C24930839   7.054   1.354   3.323 -0.0851 -0.6945  0.2317
   96MOL   C25030840   7.301   1.500   3.528 -0.2641  0.0917  0.5710
   96MOL   H25130841   7.214   1.344   3.637  0.5493  0.8030  0.4272
   96MOL   H25230842   7.273   1.157   3.493  1.2953 -1.3373 -2.0570
   96MOL   H25330843   7.086   1.088   3.113  1.0887 -0.6591 -0.1294
   96MOL   H25430844   6.976   1.310   3.121 -0.3268  2.9173  0.6845
   96MOL   H25530845   7.007   1.451   3.328  2.9071  0.7986  0.4584
   96MOL   H25630846   7.287   1.542   3.428 -1.0615  0.0120  0.6506
   96MOL   H25730847   7.284   1.591   3.585 -1.8392  0.8823 -1.0949
   96MOL   C25830848   7.449   1.450   3.533  0.1175 -0.3456 -0.2057
   96MOL   C25930849   7.539   1.550   3.453  0.5380 -0.1230 -0.0089
   96MOL   C26030850   7.557   1.687   3.501  0.0750 -0.1544  0.0769
   96MOL   C26130851   7.607   1.788   3.416  0.2337 -0.7344 -0.1349
   96MOL  Cl26230852   7.625   1.958   3.462 -0.1985  0.0433 -0.2431
   96MOL   C26330853   7.655   1.753   3.287  0.0503  0.0673 -0.5360
   96MOL   C26430854   7.650   1.618   3.243  0.1046 -0.3347  0.2988
   96MOL   C26530855   7.598   1.517   3.328 -0.4288 -0.1765 -0.4577
   96MOL   C26630856   7.496   1.413   3.682  0.0503  0.4162  0.3282
   96MOL   H26730857   7.442   1.355   3.479  2.4392 -0.9492  0.5267
   96MOL   H26830858   7.507   1.710   3.595 -0.7349 -2.3554  0.2199
   96MOL   H26930859   7.696   1.831   3.226  0.9143 -2.5616 -3.3879
   96MOL   H27030860   7.693   1.593   3.147  1.7812 -0.9128  1.1826
   96MOL   H27130861   7.582   1.419   3.285 -0.7709 -0.9208  1.3430
   96MOL   H27230862   7.427   1.469   3.746 -0.4744  0.5975 -0.3896
   96MOL   H27330863   7.487   1.308   3.707  0.6857  0.6820  1.7493
   96MOL   C27430864   7.642   1.440   3.710  0.4956  0.1249  0.1403
   96MOL   C27530865   7.667   1.428   3.863 -0.5202 -0.9729 -0.7909
   96MOL   C27630866   7.685   1.302   3.925  1.1518 -0.5235 -0.6935
   96MOL   C27730867   7.680   1.292   4.067 -0.1253  0.9140  0.6655
   96MOL  Cl27830868   7.703   1.137   4.151  0.1298 -0.0220 -0.3059
   96MOL   C27930869   7.659   1.408   4.145 -0.2587 -0.6273 -0.5484
   96MOL   C28030870   7.639   1.533   4.081 -0.8037  0.0523  0.0122
   96MOL   C28130871   7.646   1.542   3.941  0.7153  0.5294  0.3506
   96MOL   C28230872   7.726   1.355   3.620 -0.1257 -0.1086 -0.3291
   96MOL   H28330873   7.655   1.546   3.691 -1.3738  0.2319 -0.6287
   96MOL   H28430874   7.706   1.213   3.868 -0.6379 -0.4261 -1.5449
   96MOL   H28530875   7.656   1.394   4.252 -1.4004 -0.0675 -0.5010
   96MOL   H28630876   7.637   1.630   4.129  0.8359 -0.6166  1.5174
   96MOL   H28730877   7.609   1.629   3.888 -2.0557 -0.7464  0.0965
   96MOL   H28830878   7.698   1.252   3.640 -0.6693 -0.3866 -2.4635
   96MOL   H28930879   7.708   1.356   3.513  0.6884  1.0191 -0.4668
   96MOL   C29030880   7.882   1.363   3.655 -0.3628 -0.2198 -0.0004
   96MOL   C29130881   7.948   1.229   3.669 -0.0642  0.3767 -0.4079
   96MOL   C29230882   7.969   1.176   3.798  0.2810  0.5078 -0.7215
   96MOL   C29330883   8.022   1.049   3.818  0.0629 -0.3470  0.3789
   96MOL  Cl29430884   8.036   0.989   3.975  0.0258 -0.0697 -0.1271
   96MOL   C29530885   8.059   0.974   3.702 -0.4228 -0.4987 -0.9371
   96MOL   C29630886   8.038   1.024   3.573 -0.3723  0.2145 -0.8514
   96MOL   C29730887   7.988   1.153   3.554  0.4765 -0.0281 -0.0897
   96MOL   C29830888   7.960   1.452   3.554 -0.0056  0.0817 -0.2482
   96MOL   H29930889   7.907   1.403   3.753  1.6179 -0.1952 -0.5055
   96MOL   H30030890   7.934   1.242   3.875 -0.2628  1.6354 -1.9120
   96MOL   H30130891   8.104   0.878   3.723 -0.4672 -0.7783 -2.0954
   96MOL   H30230892   8.054   0.955   3.492 -1.0721 -1.2642  0.2447
   96MOL   H30330893   7.969   1.184   3.452  1.0068 -1.5633 -0.6731
   96MOL   H30430894   8.067   1.433   3.558  0.4423  2.3555 -0.8038
   96MOL   H30530895   7.937   1.419   3.453 -1.8890  2.0535 -0.5148
   96MOL   C30630896   7.940   1.604   3.545 -0.0426  0.0467 -1.0374
   96MOL   C30730897   7.944   1.669   3.683 -0.7055 -1.0480 -0.7623
   96MOL   C30830898   8.048   1.633   3.780 -0.8495  0.0863 -0.0737
   96MOL   C30930899   8.041   1.696   3.905 -0.0390  0.9742  0.0305
   96MOL  Cl31030900   8.169   1.671   4.024  0.2811  0.1296 -0.1711
   96MOL   C31130901   7.943   1.785   3.938 -0.0678 -0.5587 -0.2595
   96MOL   C31230902   7.849   1.831   3.842 -0.1664 -0.3025 -0.7290
   96MOL   C31330903   7.842   1.763   3.719 -0.0480 -0.3149 -0.1139
   96MOL   C31430904   8.023   1.669   3.438  0.0150  0.6777  0.5629
   96MOL   H31530905   7.836   1.614   3.516 -0.4823 -1.3353  0.0288
   96MOL   H31630906   8.132   1.574   3.747 -0.4175  1.6790 -1.8894
   96MOL   H31730907   7.953   1.817   4.040  1.4512 -0.4838 -0.4254
   96MOL   H31830908   7.781   1.910   3.871  1.5830  0.1841  2.1653
   96MOL   H31930909   7.775   1.796   3.641 -2.0157 -0.1219  1.6245
   96MOL   H32030910   8.128   1.681   3.466  0.4566  2.2025 -1.6686
   96MOL   H32130911   8.039   1.603   3.353  0.5216  0.6488  0.6736
   96MOL   H32230912   7.979   1.753   3.385 -2.8230 -0.1767  1.4793
   97MOL     C130913   2.341   2.422   7.298  0.4403 -0.3788  0.2067
   97MOL     C230914   2.232   2.524   7.303  0.0888  0.2401 -0.5227
   97MOL     C330915   2.103   2.482   7.271  0.0846  0.6967  0.1571
   97MOL     C430916   1.991   2.572   7.297 -0.7924 -0.1761 -0.2113
   97MOL    Cl530917   1.832   2.521   7.260  0.0361  0.2134  0.1818
   97MOL     C630918   2.024   2.708   7.333 -0.6014 -0.0874  0.2878
   97MOL     C730919   2.155   2.751   7.353 -0.4127  0.3851  0.1970
   97MOL     C830920   2.257   2.658   7.335  0.0178  0.0518  0.0970
   97MOL     C930921   2.372   2.371   7.439 -0.0235 -0.1152  0.0509
   97MOL    H1030922   2.433   2.463   7.258  0.8655  0.7443  2.2301
   97MOL    H1130923   2.080   2.378   7.251 -0.0292  0.7001  0.2664
   97MOL    H1230924   1.943   2.772   7.365 -1.0811 -0.6106  0.1232
   97MOL    H1330925   2.181   2.851   7.382 -0.9507  0.6176 -0.1285
   97MOL    H1430926   2.359   2.677   7.365  0.4191 -1.5726 -0.2295
   97MOL    H1530927   2.406   2.459   7.493 -0.0968  0.2375 -0.4721
   97MOL    H1630928   2.278   2.328   7.472  0.7279 -1.8233  0.0257
   97MOL    H1730929   2.306   2.341   7.235  1.5345 -0.7832  0.1129
   97MOL    C1830930   2.476   2.263   7.429 -0.3739  0.8277 -0.5360
   97MOL    C1930931   2.548   2.247   7.563 -0.5315 -0.2037 -0.5363
   97MOL    C2030932   2.662   2.327   7.599 -0.7273  0.3943 -0.3126
   97MOL    C2130933   2.719   2.301   7.724  0.0004  0.2613  0.4526
   97MOL   Cl2230934   2.854   2.397   7.786  0.1514  0.0298 -0.2683
   97MOL    C2330935   2.661   2.215   7.818  0.1794  0.3956  0.2873
   97MOL    C2430936   2.544   2.143   7.783  1.0983  0.4391  0.1687
   97MOL    C2530937   2.491   2.164   7.657 -0.3141 -0.1753  0.0840
   97MOL    C2630938   2.442   2.125   7.361  0.0418 -0.0773  0.2906
   97MOL    H2730939   2.548   2.306   7.360 -1.1273  1.8258 -0.7091
   97MOL    H2830940   2.701   2.398   7.528 -0.5764 -0.3334 -0.9686
   97MOL    H2930941   2.712   2.204   7.913 -1.1923  1.7978  1.2228
   97MOL    H3030942   2.494   2.080   7.855 -1.6580  2.0733 -0.2266
   97MOL    H3130943   2.396   2.115   7.642 -0.4175  0.2409 -0.6678
   97MOL    H3230944   2.349   2.090   7.405 -0.5733  2.3319  1.0169
   97MOL    H3330945   2.418   2.163   7.261  0.0631  0.6314  0.5534
   97MOL    C3430946   2.554   2.027   7.362  0.0196  0.1363  0.2532
   97MOL    C3530947   2.498   1.892   7.320  0.0925  0.7456  0.1882
   97MOL    C3630948   2.458   1.863   7.188  0.6411  0.5059 -0.7292
   97MOL    C3730949   2.396   1.736   7.161  0.3935  0.4267 -0.4830
   97MOL   Cl3830950   2.368   1.685   6.997  0.2511  0.5481 -0.0803
   97MOL    C3930951   2.364   1.645   7.265 -0.0460 -0.1680  0.7530
   97MOL    C4030952   2.405   1.676   7.398  0.1710  0.1089  0.4167
   97MOL    C4130953   2.474   1.796   7.423 -0.4500  0.0421 -0.3216
   97MOL    C4230954   2.693   2.068   7.304 -0.5037 -1.0962 -0.1349
   97MOL    H4330955   2.581   2.007   7.465  0.6519  1.7315  0.4091
   97MOL    H4430956   2.478   1.934   7.110  0.3259  2.3567  0.8461
   97MOL    H4530957   2.307   1.558   7.236  0.3710 -0.2388  0.1425
   97MOL    H4630958   2.395   1.601   7.475 -2.9830 -0.8118 -0.8207
   97MOL    H4730959   2.503   1.824   7.523  0.5062 -1.2799 -0.2136
   97MOL    H4830960   2.694   2.057   7.195  1.1093  0.0909 -0.2635
   97MOL    H4930961   2.722   2.169   7.333 -1.0468 -0.6459 -1.1220
   97MOL    C5030962   2.816   1.987   7.347 -0.7928 -0.7621 -0.4658
   97MOL    C5130963   2.921   2.007   7.243 -0.9815  0.0576  0.4004
   97MOL    C5230964   2.992   2.130   7.219 -0.9980  0.7092  0.1572
   97MOL    C5330965   3.091   2.132   7.118  0.4024 -0.0124 -0.3796
   97MOL   Cl5430966   3.172   2.277   7.074  0.4880 -0.1513 -0.0808
   97MOL    C5530967   3.137   2.015   7.053 -0.3281  0.3826 -0.2795
   97MOL    C5630968   3.068   1.893   7.075  1.0471 -0.2765 -0.3554
   97MOL    C5730969   2.963   1.895   7.170 -0.1936 -0.4181 -0.0678
   97MOL    C5830970   2.858   2.033   7.486  0.4585  0.0545  0.5513
   97MOL    H5930971   2.795   1.880   7.356 -0.2746 -0.8458 -0.2325
   97MOL    H6030972   2.959   2.220   7.268 -1.5270  0.1728  0.8005
   97MOL    H6130973   3.210   2.030   6.975  0.6372  2.3982  0.9685
   97MOL    H6230974   3.087   1.799   7.025 -0.3986 -0.0743 -1.3103
   97MOL    H6330975   2.913   1.800   7.184 -0.3121 -0.3520 -0.0436
   97MOL    H6430976   2.899   2.134   7.489  1.4088 -0.3394  0.9380
   97MOL    H6530977   2.771   2.051   7.551 -1.0609  0.8060 -1.6357
   97MOL    C6630978   2.944   1.921   7.561 -0.2087 -0.8272 -0.7419
   97MOL    C6730979   3.083   1.910   7.496  0.3331 -0.2884 -0.5780
   97MOL    C6830980   3.136   1.795   7.445  0.4422  0.2855 -0.0614
   97MOL    C6930981   3.265   1.784   7.382 -0.1257 -0.3069 -0.2247
   97MOL   Cl7030982   3.331   1.639   7.325 -0.2322  0.3768  0.4685
   97MOL    C7130983   3.342   1.899   7.381 -0.2850 -0.8217 -0.2182
   97MOL    C7230984   3.283   2.023   7.422  0.1738  0.7044  0.4551
   97MOL    C7330985   3.154   2.032   7.477 -0.0455 -0.2252 -0.0739
   97MOL    C7430986   2.951   1.954   7.712  0.3847  0.5932  0.4533
   97MOL    H7530987   2.893   1.826   7.541  1.1538 -1.6480 -0.3504
   97MOL    H7630988   3.082   1.701   7.448  0.6450  0.2149  2.9173
   97MOL    H7730989   3.437   1.900   7.331  1.5393 -0.0529  3.0803
   97MOL    H7830990   3.344   2.112   7.416 -1.0841  1.5627  0.3415
   97MOL    H7930991   3.120   2.131   7.501 -0.0088 -0.3952  0.7091
   97MOL    H8030992   2.980   2.059   7.721  0.2155  0.5956  0.9878
   97MOL    H8130993   2.848   1.946   7.746 -0.4941 -1.9808 -2.5800
   97MOL    C8230994   3.043   1.852   7.793 -0.3834 -0.5919 -0.2462
   97MOL    C8330995   3.199   1.879   7.781 -0.2186 -0.3949 -0.8739
   97MOL    C8430996   3.299   1.781   7.745  0.3029  0.6673  0.4312
   97MOL    C8530997   3.435   1.811   7.745  0.0425 -0.1999 -0.4047
   97MOL   Cl8630998   3.538   1.686   7.683 -0.1381 -0.2106  0.4340
   97MOL    C8730999   3.473   1.944   7.763  0.1681  0.7438 -1.2071
   97MOL    C8831000   3.381   2.046   7.786 -0.0823  0.4206  0.5426
   97MOL    C8931001   3.245   2.010   7.802  0.0273 -0.1461 -0.4141
   97MOL    C9031002   3.000   1.842   7.943 -0.7150  0.4808  0.7441
   97MOL    H9131003   3.020   1.754   7.752 -1.5482 -0.1753 -0.6278
   97MOL    H9231004   3.270   1.678   7.731 -1.0715  0.9507  1.1535
   97MOL    H9331005   3.577   1.969   7.749  0.0014  2.0280 -0.2634
   97MOL    H9431006   3.417   2.147   7.801  2.0230 -0.4595  1.4664
   97MOL    H9531007   3.175   2.089   7.823  0.2667  0.5691 -2.1794
   97MOL    H9631008   3.006   1.945   7.977  1.1883  0.6370 -0.0039
   97MOL    H9731009   2.894   1.824   7.960 -0.7880  0.6387  0.4578
   97MOL    C9831010   3.105   1.779   8.042  0.6162  0.1601 -0.6708
   97MOL    C9931011   3.079   1.836   8.186 -0.6223 -0.3645 -0.3621
   97MOL   C10031012   3.186   1.909   8.244 -0.1190  0.1544  0.2242
   97MOL   C10131013   3.180   1.954   8.375 -0.1426 -0.0368 -0.2504
   97MOL  Cl10231014   3.316   2.027   0.018  0.2744  0.1479 -0.2549
   97MOL   C10331015   3.070   1.920   0.018  0.5478  0.5352 -0.3669
   97MOL   C10431016   2.958   1.859   8.390 -0.7690  0.6092 -0.3463
   97MOL   C10531017   2.965   1.807   8.258 -0.3687  0.5783 -0.1498
   97MOL   C10631018   3.110   1.622   8.034  0.2204  0.6389 -0.6392
   97MOL   H10731019   3.207   1.807   8.018  0.7915 -0.1528 -0.2981
   97MOL   H10831020   3.277   1.918   8.187 -1.6128  1.7567 -1.9777
   97MOL   H10931021   3.067   1.949   0.122  1.0816  0.7114 -0.3981
   97MOL   H11031022   2.873   1.840   0.018 -0.8730  1.3614 -0.2615
   97MOL   H11131023   2.889   1.749   8.206 -0.4268 -1.1191  1.7419
   97MOL   H11231024   3.011   1.580   8.053 -1.0059  2.3789 -2.9699
   97MOL   H11331025   3.126   1.598   7.929  1.4162 -0.7361 -0.1679
   97MOL   C11431026   3.211   1.558   8.126  0.2027  1.0628  0.3189
   97MOL   C11531027   3.170   1.409   8.152  0.4076 -0.0575  0.1137
   97MOL   C11631028   3.172   1.310   8.045 -0.1428 -0.8108 -0.3669
   97MOL   C11731029   3.132   1.181   8.077 -0.8815 -0.1020 -0.4506
   97MOL  Cl11831030   3.145   1.066   7.947  0.1780 -0.1893 -0.1437
   97MOL   C11931031   3.093   1.144   8.212  0.2825 -0.0402 -0.0136
   97MOL   C12031032   3.101   1.241   8.314 -0.2178  0.2889  0.1032
   97MOL   C12131033   3.139   1.371   8.279 -0.2982  0.6274  0.3824
   97MOL   C12231034   3.357   1.582   8.081 -0.1930 -0.2588 -0.2068
   97MOL   H12331035   3.206   1.613   8.220  1.2528  1.9376 -0.1249
   97MOL   H12431036   3.206   1.345   7.949  0.8175  1.3289  0.6938
   97MOL   H12531037   3.051   1.045   8.224 -1.5546  0.8573  1.2801
   97MOL   H12631038   3.079   1.219   8.417 -0.4640 -0.9347 -0.2020
   97MOL   H12731039   3.151   1.450   8.352  2.5254  0.3380  0.2761
   97MOL   H12831040   3.357   1.543   7.979  0.3248  0.9110 -0.6583
   97MOL   H12931041   3.389   1.686   8.085  0.5349 -0.5168  1.3900
   97MOL   C13031042   3.469   1.509   8.156 -0.5056  0.3177 -0.3553
   97MOL   C13131043   3.444   1.533   8.307 -0.2436  0.3831  0.1021
   97MOL   C13231044   3.404   1.425   8.386  0.2143  0.2011 -0.1395
   97MOL   C13331045   3.361   1.444   0.084 -0.2825  0.3622 -0.8154
   97MOL  Cl13431046   3.307   1.312   0.182  0.1915  0.3282 -0.1794
   97MOL   C13531047   3.359   1.579   0.139  0.0265 -0.1713  0.1146
   97MOL   C13631048   3.410   1.689   0.064  0.0563 -0.5292  0.6170
   97MOL   C13731049   3.448   1.667   8.364  0.2432  0.2001  0.3304
   97MOL   C13831050   3.493   1.355   8.121  0.3304 -0.6078  0.6074
   97MOL   H13931051   3.564   1.561   8.141 -0.4833  0.7331  1.1783
   97MOL   H14031052   3.401   1.323   8.350 -0.1687  1.0735 -2.6550
   97MOL   H14131053   3.327   1.597   0.240  0.8731  2.4775 -0.0542
   97MOL   H14231054   3.409   1.783   0.117 -1.8894 -0.2202  0.0569
   97MOL   H14331055   3.467   1.750   8.298 -0.6354 -1.1321 -1.6654
   97MOL   H14431056   3.568   1.325   8.194  1.9411 -2.5267 -1.7846
   97MOL   H14531057   3.406   1.290   8.130  0.1480 -0.8774 -2.5994
   97MOL   C14631058   3.555   1.340   7.983 -0.5770  0.1031 -1.0177
   97MOL   C14731059   3.702   1.372   7.982  1.0711 -0.9794 -0.3374
   97MOL   C14831060   3.798   1.318   8.069 -0.4412  0.1489 -0.5585
   97MOL   C14931061   3.930   1.344   8.057 -0.7783  0.2436 -0.1107
   97MOL  Cl15031062   4.049   1.285   8.171 -0.5836  0.3136 -0.1946
   97MOL   C15131063   3.978   1.424   7.956 -0.2368 -0.4527 -0.9514
   97MOL   C15231064   3.889   1.483   7.864  0.3524  0.6470  0.2190
   97MOL   C15331065   3.750   1.457   7.880 -0.3356 -0.7514 -0.1545
   97MOL   C15431066   3.519   1.205   7.910 -0.4065 -0.0715  0.2659
   97MOL   H15531067   3.506   1.410   7.915 -0.5984 -0.8383 -1.9899
   97MOL   H15631068   3.768   1.244   8.141  0.7496 -0.1740 -0.3907
   97MOL   H15731069   4.079   1.462   7.944 -0.4516  0.8335  1.0252
   97MOL   H15831070   3.924   1.539   7.778 -0.7031  1.1740  0.1336
   97MOL   H15931071   3.679   1.498   7.810  0.1056  0.7236  0.2548
   97MOL   H16031072   3.423   1.176   7.953 -0.3582  0.4908  0.7724
   97MOL   H16131073   3.484   1.232   7.810  0.3932  3.0276  0.7819
   97MOL   C16231074   3.627   1.089   7.893 -0.1072  0.2192 -0.3732
   97MOL   C16331075   3.555   0.957   7.865 -0.1434  0.4808 -0.0069
   97MOL   C16431076   3.478   0.948   7.745 -0.5810 -0.3805 -0.1822
   97MOL   C16531077   3.437   0.822   7.701  0.4557  0.1625  0.5181
   97MOL  Cl16631078   3.351   0.814   7.551 -0.1025  0.0872  0.0991
   97MOL   C16731079   3.458   0.707   7.779  0.2954 -0.3753 -0.3784
   97MOL   C16831080   3.531   0.716   7.903  0.8677 -0.0713 -0.0033
   97MOL   C16931081   3.582   0.843   7.942 -0.5092  0.8636 -0.4740
   97MOL   C17031082   3.740   1.129   7.784 -0.3676 -0.2626 -0.6910
   97MOL   H17131083   3.669   1.080   7.993 -0.3416  0.5016 -0.2462
   97MOL   H17231084   3.461   1.040   7.690 -0.1086  1.3942  2.5706
   97MOL   H17331085   3.415   0.612   7.750  0.6542 -0.7848  0.4236
   97MOL   H17431086   3.542   0.625   7.960 -1.7651 -1.6328 -1.8452
   97MOL   H17531087   3.654   0.846   8.022  0.2069 -1.0862 -1.0365
   97MOL   H17631088   3.686   1.156   7.693  1.6711  1.0775 -1.5349
   97MOL   H17731089   3.784   1.228   7.788  2.8142 -1.6400 -0.2012
   97MOL   C17831090   3.850   1.017   7.766 -0.1201 -0.2556 -0.4585
   97MOL   C17931091   3.916   1.060   7.636  0.3082  0.8228  0.3288
   97MOL   C18031092   3.895   0.976   7.519  0.6248 -0.2433 -0.0540
   97MOL   C18131093   3.958   1.006   7.399  0.3748 -0.5266 -0.0872
   97MOL  Cl18231094   3.933   0.906   7.263  0.1981 -0.1066  0.5186
   97MOL   C18331095   4.039   1.126   7.390  0.2269  0.1422  0.4311
   97MOL   C18431096   4.053   1.212   7.501  0.0119  0.3673 -0.1136
   97MOL   C18531097   3.994   1.178   7.626  0.8735 -0.3120  0.5364
   97MOL   C18631098   3.950   0.995   7.885  0.5583  0.0877 -0.2767
   97MOL   H18731099   3.800   0.923   7.743 -0.6504 -0.7403  2.5443
   97MOL   H18831100   3.842   0.882   7.516  1.8885 -1.0660  2.1766
   97MOL   H18931101   4.082   1.145   7.293  1.3489 -2.2069  0.4207
   97MOL   H19031102   4.109   1.304   7.491 -0.5084  0.7418  0.3719
   97MOL   H19131103   4.010   1.241   7.712  0.5698  0.0560  0.3241
   97MOL   H19231104   3.985   1.097   7.898  0.3398 -0.0232  1.2509
   97MOL   H19331105   3.898   0.975   7.978  4.1872 -0.8018  1.6652
   97MOL   C19431106   4.055   0.883   7.861 -0.1929 -0.5040 -0.3621
   97MOL   C19531107   4.186   0.915   7.919  0.2868 -0.5315  0.3807
   97MOL   C19631108   4.294   0.953   7.832 -0.3325  0.0966  0.0428
   97MOL   C19731109   4.411   0.999   7.892  0.5099 -0.4434 -0.6407
   97MOL  Cl19831110   4.539   1.047   7.796 -0.0908 -0.1470 -0.4850
   97MOL   C19931111   4.423   0.999   8.035  0.5703 -0.1486 -0.6219
   97MOL   C20031112   4.310   0.971   8.120 -0.4235 -0.7770 -0.1830
   97MOL   C20131113   4.193   0.930   8.056  0.3309  0.2391 -0.3096
   97MOL   C20231114   4.014   0.744   7.912 -0.0691  0.6892 -0.2977
   97MOL   H20331115   4.068   0.880   7.753 -0.2053  0.7070 -0.3996
   97MOL   H20431116   4.291   0.933   7.726  0.2944 -1.3373  0.2790
   97MOL   H20531117   4.513   1.033   8.084 -1.3256  0.0903  2.8535
   97MOL   H20631118   4.321   0.972   8.227 -0.7643  0.1500 -0.1523
   97MOL   H20731119   4.103   0.915   8.113 -0.2810  2.3204 -0.6800
   97MOL   H20831120   4.053   0.718   8.010  0.3201  0.7797 -0.4308
   97MOL   H20931121   3.905   0.749   7.921 -0.1012  0.0584 -0.2777
   97MOL   C21031122   4.037   0.624   7.820  0.6930 -0.5721  0.1824
   97MOL   C21131123   3.920   0.604   7.721 -0.3024 -0.4148 -0.2677
   97MOL   C21231124   3.808   0.522   7.761 -0.3662 -0.3262 -0.3783
   97MOL   C21331125   3.711   0.479   7.669 -0.1393 -0.3143  0.1443
   97MOL  Cl21431126   3.576   0.389   7.719  0.1063  0.0621  0.0581
   97MOL   C21531127   3.725   0.519   7.532 -0.7740 -0.4706  0.4123
   97MOL   C21631128   3.835   0.604   7.495 -0.1386  0.4150  0.1135
   97MOL   C21731129   3.926   0.651   7.595  0.1403 -0.3177  0.2484
   97MOL   C21831130   4.171   0.615   7.744  0.6297 -0.0440  0.1676
   97MOL   H21931131   4.032   0.530   7.874  0.7681 -0.4180  0.4565
   97MOL   H22031132   3.801   0.484   7.862 -3.7857 -0.7978 -0.7183
   97MOL   H22131133   3.659   0.488   7.453  0.3377  0.5790 -0.9469
   97MOL   H22231134   3.840   0.637   7.392  0.8164  1.5548  0.5151
   97MOL   H22331135   4.008   0.714   7.562 -0.9035  1.6552  1.3360
   97MOL   H22431136   4.160   0.533   7.672  1.2167 -0.5726  0.6792
   97MOL   H22531137   4.199   0.700   7.682 -1.6310 -0.2230 -1.1613
   97MOL   C22631138   4.294   0.583   7.836 -0.3068  0.0104  0.0146
   97MOL   C22731139   4.286   0.478   7.943 -0.2559  0.3718 -0.9815
   97MOL   C22831140   4.272   0.344   7.898 -0.3588 -0.3596  0.4456
   97MOL   C22931141   4.261   0.238   7.988  0.1876  0.1055  1.6445
   97MOL  Cl23031142   4.228   0.079   7.929 -0.1478 -0.0061  0.1715
   97MOL   C23131143   4.269   0.266   8.122  0.6714  0.0304  0.2474
   97MOL   C23231144   4.281   0.396   8.171 -0.1845 -0.4247 -0.1029
   97MOL   C23331145   4.286   0.506   8.081  1.1790  0.0550 -0.5934
   97MOL   C23431146   4.424   0.572   7.760  0.9937 -0.2176 -0.3050
   97MOL   H23531147   4.303   0.676   7.892 -1.1429 -0.8294  1.5670
   97MOL   H23631148   4.258   0.326   7.792 -3.1956 -2.0395  1.0466
   97MOL   H23731149   4.267   0.175   8.181  0.0074 -0.7856 -0.9947
   97MOL   H23831150   4.290   0.408   8.278  1.4911 -0.2648 -0.2367
   97MOL   H23931151   4.311   0.602   8.126  2.1838  0.2003 -1.4456
   97MOL   H24031152   4.398   0.490   7.693  0.5684  0.4976 -1.0279
   97MOL   H24131153   4.429   0.654   7.689  4.2361 -0.1251 -0.0679
   97MOL   C24231154   4.553   0.560   7.848 -1.0089 -0.3276  1.2906
   97MOL   C24331155   4.673   0.508   7.770  0.2192  0.1137 -0.6991
   97MOL   C24431156   4.730   0.383   7.807  0.5009 -0.4334 -0.0613
   97MOL   C24531157   4.855   0.346   7.752 -0.1147  0.3872  0.0472
   97MOL  Cl24631158   4.935   0.201   7.805 -0.8087  0.2135 -0.2691
   97MOL   C24731159   4.909   0.426   7.646 -0.5276  0.1839  0.5940
   97MOL   C24831160   4.840   0.541   7.597  0.7031 -0.0244  0.6884
   97MOL   C24931161   4.728   0.585   7.667  0.1657 -0.0841  0.3236
   97MOL   C25031162   4.591   0.691   7.922 -0.2283 -0.1799  0.6533
   97MOL   H25131163   4.542   0.475   7.916  2.8587 -2.3559 -0.4550
   97MOL   H25231164   4.690   0.340   7.897 -0.9218  1.0026  0.0075
   97MOL   H25331165   4.997   0.397   7.590 -0.1399 -0.8596  1.7294
   97MOL   H25431166   4.862   0.603   7.512 -0.2062  0.3173  0.6989
   97MOL   H25531167   4.678   0.674   7.632 -1.0747 -0.2598  1.6436
   97MOL   H25631168   4.588   0.773   7.850 -1.1972 -0.3491  0.4973
   97MOL   H25731169   4.508   0.705   7.991 -2.1620  2.4470 -2.0656
   97MOL   C25831170   4.739   0.694   7.983 -0.5954 -0.7333  0.2863
   97MOL   C25931171   4.785   0.834   8.008 -0.3744  0.3878 -0.8855
   97MOL   C26031172   4.737   0.913   8.120  0.7601 -0.1309  0.0011
   97MOL   C26131173   4.784   1.041   8.142  0.3151 -0.1243  0.5188
   97MOL  Cl26231174   4.726   1.132   8.274 -0.1701  0.0296 -0.1251
   97MOL   C26331175   4.887   1.090   8.057 -0.1684 -0.6270 -0.5586
   97MOL   C26431176   4.937   1.019   7.947 -0.4934 -0.1721 -0.4232
   97MOL   C26531177   4.885   0.887   7.921  0.6202  0.6936  0.3228
   97MOL   C26631178   4.751   0.603   8.109 -0.4755  1.5848  0.4860
   97MOL   H26731179   4.806   0.644   7.913  0.0909 -0.5329  0.7911
   97MOL   H26831180   4.668   0.870   8.191  2.1938 -0.2301  1.3593
   97MOL   H26931181   4.943   1.179   8.079  2.3423 -1.9359 -1.5356
   97MOL   H27031182   5.020   1.064   7.894  1.3036 -1.5496  1.1498
   97MOL   H27131183   4.929   0.845   7.832 -1.3256  0.2588 -0.4500
   97MOL   H27231184   4.677   0.621   8.187  0.5023 -0.0268  1.8458
   97MOL   H27331185   4.741   0.499   8.077  0.6478  1.1330  1.5205
   97MOL   C27431186   4.888   0.604   8.184  0.2026 -0.6353 -0.5628
   97MOL   C27531187   4.877   0.540   8.323  0.0462 -0.1974 -0.3646
   97MOL   C27631188   4.896   0.613   0.010 -0.7495 -0.1107  0.0418
   97MOL   C27731189   4.883   0.551   0.134 -0.2012 -0.1597  0.8836
   97MOL  Cl27831190   4.941   0.627   0.277 -0.3627 -0.4031  0.1225
   97MOL   C27931191   4.846   0.416   0.140 -0.5878  0.0630 -0.0719
   97MOL   C28031192   4.818   0.343   0.022  0.1537 -0.1504  0.7493
   97MOL   C28131193   4.838   0.401   8.330  0.0642 -0.7924  0.6470
   97MOL   C28231194   5.009   0.555   8.095  0.1210 -0.4634 -0.1077
   97MOL   H28331195   4.898   0.710   8.209  0.6716 -0.6580 -0.6517
   97MOL   H28431196   4.915   0.719   0.003  1.5264 -0.6720 -2.8751
   97MOL   H28531197   4.844   0.366   0.236 -2.7960  0.7656  0.2735
   97MOL   H28631198   4.797   0.239   0.040 -0.3495 -0.3122 -0.7163
   97MOL   H28731199   4.825   0.337   8.244  4.9069 -0.3381 -0.5676
   97MOL   H28831200   5.036   0.459   8.138  3.0054  1.1118  1.7900
   97MOL   H28931201   4.989   0.549   7.988  2.0202 -1.6082 -0.4157
   97MOL   C29031202   5.132   0.644   8.096 -0.2863 -0.0891 -0.6654
   97MOL   C29131203   5.185   0.650   8.237  0.2534  0.0850  0.5102
   97MOL   C29231204   5.251   0.535   8.288  0.3279  0.0616  0.0645
   97MOL   C29331205   5.285   0.545   8.422  1.1380  0.2207 -0.3798
   97MOL  Cl29431206   5.376   0.410   0.061 -0.5020  0.2679  0.1463
   97MOL   C29531207   5.255   0.655   0.072  0.4851 -0.2738 -0.3618
   97MOL   C29631208   5.184   0.763   0.017  0.0676  0.7716  0.0464
   97MOL   C29731209   5.149   0.763   8.321 -0.5590  0.7383  0.0805
   97MOL   C29831210   5.243   0.606   7.992  0.0372 -0.5886 -0.1401
   97MOL   H29931211   5.106   0.745   8.063  0.3894  0.2002 -0.3106
   97MOL   H30031212   5.264   0.451   8.222 -1.5886  2.3177 -3.3311
   97MOL   H30131213   5.266   0.651   0.179 -0.5362  0.0627 -0.2486
   97MOL   H30231214   5.139   0.836   0.081 -1.3550 -0.2636  0.2483
   97MOL   H30331215   5.095   0.849   8.284  1.1265  1.1153 -1.6252
   97MOL   H30431216   5.280   0.507   8.018  1.7865  0.5583  1.8907
   97MOL   H30531217   5.191   0.594   7.897  0.1091 -0.7515 -0.1584
   97MOL   C30631218   5.364   0.703   7.983 -0.1080 -0.2498 -0.2653
   97MOL   C30731219   5.466   0.640   7.890  0.5176 -0.1975 -0.0459
   97MOL   C30831220   5.565   0.560   7.949 -0.6645  0.9419 -0.3670
   97MOL   C30931221   5.652   0.484   7.863  0.2211  0.0584 -0.1906
   97MOL  Cl31031222   5.753   0.366   7.925 -0.2382  0.1474  0.3339
   97MOL   C31131223   5.647   0.500   7.724  0.4744  0.0825 -0.1765
   97MOL   C31231224   5.551   0.588   7.663 -0.0996 -0.2052 -0.2082
   97MOL   C31331225   5.461   0.653   7.748  0.1418 -0.6312  0.5010
   97MOL   C31431226   5.322   0.845   7.926  0.1216  0.1593 -0.1146
   97MOL   H31531227   5.414   0.728   8.077  0.1880  0.5765 -0.6398
   97MOL   H31631228   5.580   0.545   8.055 -0.6712  1.6773 -0.2618
   97MOL   H31731229   5.710   0.439   7.661  0.8143 -0.1341  0.3819
   97MOL   H31831230   5.545   0.597   7.555 -1.1466  0.7713 -0.0832
   97MOL   H31931231   5.387   0.716   7.700 -0.0948 -0.5347  0.9868
   97MOL   H32031232   5.258   0.838   7.838 -2.8145  1.0766  1.8976
   97MOL   H32131233   5.268   0.905   7.999 -2.2574 -1.7356 -0.2626
   97MOL   H32231234   5.404   0.908   7.892  1.2073 -1.0642  0.1568
   98MOL     C131235   0.593   0.980   2.068 -0.2039  0.3774 -0.5934
   98MOL     C231236   0.485   1.029   2.161  0.0296  0.1983  0.3526
   98MOL     C331237   0.457   0.956   2.282  0.5509 -0.4005  0.0544
   98MOL     C431238   0.352   0.999   2.363 -0.3435  0.8091 -0.1124
   98MOL    Cl531239   0.322   0.927   2.514 -0.0611  0.1046  0.0302
   98MOL     C631240   0.285   1.123   2.334  0.0581 -0.0135  0.4313
   98MOL     C731241   0.321   1.193   2.223 -0.4694 -0.2136 -0.0889
   98MOL     C831242   0.416   1.147   2.136 -0.9212 -0.0183 -0.0893
   98MOL     C931243   0.729   1.038   2.110 -0.2952  0.5853 -0.3601
   98MOL    H1031244   0.564   1.012   1.968  2.4632  3.3147 -0.4984
   98MOL    H1131245   0.515   0.873   2.319 -0.4801 -1.1885 -0.1090
   98MOL    H1231246   0.200   1.152   2.394  0.4140 -2.4443  2.2169
   98MOL    H1331247   0.258   1.279   2.203  1.4150  1.2703  0.2462
   98MOL    H1431248   0.441   1.207   2.050  0.6567  1.9646  1.7286
   98MOL    H1531249   0.725   1.145   2.132 -0.2071  0.1386  1.8948
   98MOL    H1631250   0.770   0.982   2.193 -0.3767  0.2758 -0.5264
   98MOL    H1731251   0.595   0.871   2.078 -0.5892  0.2408 -1.8246
   98MOL    C1831252   0.831   1.040   1.989 -0.1653  0.6689 -0.1788
   98MOL    C1931253   0.793   1.125   1.862 -0.5067 -0.1072 -0.1166
   98MOL    C2031254   0.797   1.067   1.733 -0.1494  0.2660  0.2645
   98MOL    C2131255   0.735   1.129   1.621 -0.8029  0.3866  0.4809
   98MOL   Cl2231256   0.719   1.042   1.475 -0.0614  0.0461  0.0889
   98MOL    C2331257   0.693   1.263   1.632 -0.3184  0.8998 -0.4498
   98MOL    C2431258   0.700   1.328   1.757  0.8202  0.1285 -0.1601
   98MOL    C2531259   0.744   1.254   1.870 -0.4861  0.3837  0.2141
   98MOL    C2631260   0.967   1.064   2.049  0.2592  0.1163 -0.3443
   98MOL    H2731261   0.830   0.936   1.957 -3.4026  0.8588 -0.8368
   98MOL    H2831262   0.822   0.962   1.723  1.2475  0.5745  0.4068
   98MOL    H2931263   0.657   1.322   1.549 -0.3617 -1.7445 -2.3823
   98MOL    H3031264   0.660   1.428   1.759  0.8352  0.1953 -2.2457
   98MOL    H3131265   0.739   1.305   1.965  0.0775  1.8258 -0.5025
   98MOL    H3231266   0.957   1.148   2.118  2.4802  0.5504 -0.4950
   98MOL    H3331267   0.982   0.979   2.115  2.9565 -0.6005 -1.8221
   98MOL    C3431268   1.099   1.078   1.964  0.1552  0.5365 -0.7239
   98MOL    C3531269   1.147   1.221   1.936 -0.0851  1.1478  0.1688
   98MOL    C3631270   1.075   1.295   1.837 -0.7657 -0.0325 -0.1394
   98MOL    C3731271   1.112   1.429   1.812  0.2735 -0.2786  0.1997
   98MOL   Cl3831272   1.025   1.522   1.699 -0.2113  0.2916  0.0320
   98MOL    C3931273   1.206   1.493   1.894  0.0948 -0.4745 -0.0686
   98MOL    C4031274   1.269   1.420   1.992  0.2810  0.5334  0.2797
   98MOL    C4131275   1.242   1.284   2.013  0.3645 -0.3721  0.2799
   98MOL    C4231276   1.208   0.972   1.997 -0.2198  0.4201 -0.4482
   98MOL    H4331277   1.066   1.039   1.868 -1.9531 -1.7869  0.8874
   98MOL    H4431278   0.992   1.254   1.781  1.8678 -0.4038 -3.9624
   98MOL    H4531279   1.226   1.597   1.875 -0.4681 -0.6239 -1.5297
   98MOL    H4631280   1.345   1.472   2.050  0.7002  0.8073 -0.5138
   98MOL    H4731281   1.285   1.224   2.092 -0.6302 -0.1551  0.9885
   98MOL    H4831282   1.306   0.995   1.956  0.4066 -0.2747  0.6359
   98MOL    H4931283   1.229   0.980   2.104 -0.1282  0.5105 -0.4726
   98MOL    C5031284   1.177   0.824   1.971 -0.4731 -0.2026  0.5784
   98MOL    C5131285   1.234   0.770   1.834  0.6286 -0.0349  0.5228
   98MOL    C5231286   1.150   0.677   1.765 -0.2836  0.6334  0.2245
   98MOL    C5331287   1.204   0.615   1.653  0.4000 -0.0256  0.3914
   98MOL   Cl5431288   1.129   0.479   1.579  0.1337 -0.2410  0.0668
   98MOL    C5531289   1.331   0.647   1.607  0.2836  0.2600  0.4498
   98MOL    C5631290   1.410   0.744   1.671 -0.6575 -0.4930 -0.0092
   98MOL    C5731291   1.359   0.807   1.782 -0.0303 -0.1752 -0.2015
   98MOL    C5831292   1.232   0.728   2.082  0.7978  0.1551 -0.1565
   98MOL    H5931293   1.069   0.807   1.966 -0.4157 -0.5165  0.3850
   98MOL    H6031294   1.055   0.639   1.800  0.0082 -0.3768 -0.0844
   98MOL    H6131295   1.365   0.596   1.518 -0.9071  1.1046 -0.5119
   98MOL    H6231296   1.508   0.772   1.634 -0.0429 -1.2416  0.9990
   98MOL    H6331297   1.418   0.885   1.828  0.7653 -2.5863  2.9850
   98MOL    H6431298   1.227   0.628   2.039  1.9183  0.1985 -0.4004
   98MOL    H6531299   1.334   0.758   2.106  0.9786 -1.0944  0.6943
   98MOL    C6631300   1.151   0.718   2.211 -0.9530  0.8729 -0.1775
   98MOL    C6731301   1.005   0.693   2.197  0.3694 -0.4541  0.0249
   98MOL    C6831302   0.963   0.596   2.103 -0.0369  0.1539 -0.0807
   98MOL    C6931303   0.823   0.571   2.092 -0.2887  0.3709  0.1362
   98MOL   Cl7031304   0.779   0.461   1.974 -0.1220  0.0241 -0.1060
   98MOL    C7131305   0.731   0.634   2.175 -0.0066  0.5003  0.4473
   98MOL    C7231306   0.776   0.720   2.278 -0.1836 -0.6135 -0.4196
   98MOL    C7331307   0.913   0.752   2.288 -1.1006  0.4020  0.5067
   98MOL    C7431308   1.219   0.614   2.306 -0.6967 -0.1040  1.1302
   98MOL    H7531309   1.172   0.816   2.254  1.8454  0.0896  0.3875
   98MOL    H7631310   1.023   0.548   2.027 -2.3716 -0.7793 -1.4272
   98MOL    H7731311   0.624   0.619   2.170 -0.1679 -0.5493  4.6618
   98MOL    H7831312   0.702   0.759   2.346 -1.0708 -1.0777 -1.1112
   98MOL    H7931313   0.940   0.823   2.364  0.7726  1.4000 -1.0344
   98MOL    H8031314   1.181   0.517   2.274 -1.7185  0.3372  0.9953
   98MOL    H8131315   1.326   0.598   2.291 -1.1061 -2.1797  0.2836
   98MOL    C8231316   1.185   0.628   2.455 -0.5033 -0.4868  1.3040
   98MOL    C8331317   1.177   0.494   2.515  0.0254  0.5638  0.4177
   98MOL    C8431318   1.054   0.430   2.529  0.4023  0.6304 -0.1220
   98MOL    C8531319   1.044   0.300   2.587 -0.2592  0.0964 -0.3711
   98MOL   Cl8631320   0.892   0.237   2.631  0.0189  0.3816 -0.1306
   98MOL    C8731321   1.163   0.229   2.617  0.6239  0.5773 -0.8665
   98MOL    C8831322   1.291   0.283   2.591  0.5144 -0.1221 -0.0326
   98MOL    C8931323   1.292   0.417   2.545 -0.2789  0.3781 -0.2963
   98MOL    C9031324   1.291   0.710   2.537  0.2035  0.3095 -0.0439
   98MOL    H9131325   1.086   0.672   2.463 -0.5037 -0.6391  2.1986
   98MOL    H9231326   0.970   0.496   2.511  0.5036  0.6883 -0.3802
   98MOL    H9331327   1.158   0.132   2.663  0.3219  1.5941  1.3121
   98MOL    H9431328   1.381   0.229   2.616  0.2362  0.2547  1.8195
   98MOL    H9531329   1.390   0.460   2.530  0.2400 -1.1892 -1.5634
   98MOL    H9631330   1.295   0.678   2.641  2.0034 -0.0124 -0.2113
   98MOL    H9731331   1.392   0.691   2.501 -0.4886 -1.9717 -0.8631
   98MOL    C9831332   1.262   0.866   2.541  0.1921  0.3122  0.2414
   98MOL    C9931333   1.120   0.898   2.567  0.6722 -0.3129  0.4105
   98MOL   C10031334   1.057   0.994   2.491 -0.4601  0.2639  0.5275
   98MOL   C10131335   0.924   1.025   2.515  0.7237 -0.5129  0.1407
   98MOL  Cl10231336   0.840   1.148   2.421  0.0913  0.5950 -0.1153
   98MOL   C10331337   0.848   0.954   2.608 -0.3102 -0.2645  0.5315
   98MOL   C10431338   0.910   0.850   2.683 -0.0514  0.1415 -0.4171
   98MOL   C10531339   1.045   0.823   2.665  0.4359  0.3706  0.1793
   98MOL   C10631340   1.358   0.929   2.644  0.8099  0.3692  0.0974
   98MOL   H10731341   1.283   0.903   2.441  0.1579 -2.4324 -0.8312
   98MOL   H10831342   1.106   1.053   2.415  0.2552 -0.4386  0.4431
   98MOL   H10931343   0.741   0.966   2.619 -0.4417 -0.2170 -0.7956
   98MOL   H11031344   0.850   0.783   2.744  1.0170  0.0511  0.5523
   98MOL   H11131345   1.090   0.747   2.727  0.0773 -1.2330 -1.5094
   98MOL   H11231346   1.335   1.035   2.656 -0.0583  0.4469 -2.1377
   98MOL   H11331347   1.326   0.887   2.740 -0.1297  2.1856  0.6094
   98MOL   C11431348   1.508   0.926   2.609  0.5326 -0.4452  0.3382
   98MOL   C11531349   1.537   0.991   2.471  0.4019 -0.5943 -0.3112
   98MOL   C11631350   1.576   0.907   2.364  0.1132  0.4496 -0.4072
   98MOL   C11731351   1.598   0.968   2.240  0.6745  0.2546 -0.8743
   98MOL  Cl11831352   1.655   0.866   2.110 -0.3466 -0.1215  0.1542
   98MOL   C11931353   1.589   1.102   2.216 -0.6346  0.1873 -0.3268
   98MOL   C12031354   1.556   1.190   2.327  0.2474  0.6076  0.0319
   98MOL   C12131355   1.522   1.129   2.453 -0.7180 -0.2850  0.1929
   98MOL   C12231356   1.589   0.994   2.729 -0.0722 -0.1392  0.1912
   98MOL   H12331357   1.545   0.824   2.600  0.7326 -0.3180 -0.3587
   98MOL   H12431358   1.595   0.801   2.369  1.0974  0.6607  0.5518
   98MOL   H12531359   1.594   1.142   2.116  0.0507 -0.8664 -0.7197
   98MOL   H12631360   1.554   1.297   2.317  0.4400  0.7054  0.9997
   98MOL   H12731361   1.488   1.196   2.531 -2.6704 -2.0989  0.9560
   98MOL   H12831362   1.523   1.075   2.760  3.4066  3.2378 -0.8797
   98MOL   H12931363   1.600   0.929   2.816  1.6274  0.2876  0.3190
   98MOL   C13031364   1.727   1.047   2.691 -0.3605 -0.4532 -0.3961
   98MOL   C13131365   1.770   1.141   2.804  0.3654 -0.3215 -0.6048
   98MOL   C13231366   1.774   1.282   2.777 -0.0808 -0.6494  0.6108
   98MOL   C13331367   1.842   1.362   2.871 -0.0631 -0.4833  0.5565
   98MOL  Cl13431368   1.860   1.530   2.850  0.5388 -0.2310  0.1121
   98MOL   C13531369   1.886   1.307   2.992  0.1544  0.1998 -0.1973
   98MOL   C13631370   1.855   1.179   3.022  0.2036  0.6767 -0.8670
   98MOL   C13731371   1.805   1.090   2.931 -0.2064 -0.5370  0.5243
   98MOL   C13831372   1.841   0.936   2.671  0.1643  0.1343 -0.4510
   98MOL   H13931373   1.721   1.103   2.598 -1.7812  1.8714  1.0604
   98MOL   H14031374   1.743   1.327   2.684 -0.7866 -0.7842  0.7811
   98MOL   H14131375   1.928   1.371   3.069 -1.3141 -2.5865  3.0285
   98MOL   H14231376   1.893   1.158   3.121 -0.8253 -0.0057 -0.6054
   98MOL   H14331377   1.794   0.989   2.967  3.9038 -1.2866 -0.0526
   98MOL   H14431378   1.837   0.860   2.750  2.2538  1.5777  1.1060
   98MOL   H14531379   1.807   0.879   2.584 -1.4526  0.9687 -0.3918
   98MOL   C14631380   1.984   0.986   2.627  0.1467 -0.4227 -0.3958
   98MOL   C14731381   2.082   0.872   2.619 -0.2519 -0.0588 -0.2225
   98MOL   C14831382   2.183   0.873   2.717  0.0129  0.1621 -0.0192
   98MOL   C14931383   2.287   0.780   2.705  1.1151  0.1835  0.2850
   98MOL  Cl15031384   2.425   0.790   2.807 -0.1782 -0.2902 -0.4330
   98MOL   C15131385   2.275   0.678   2.607  0.7436 -0.4155  0.6147
   98MOL   C15231386   2.172   0.679   2.516  0.4202  0.1878 -0.3717
   98MOL   C15331387   2.074   0.777   2.514 -0.8264 -0.1702 -0.3482
   98MOL   C15431388   1.964   1.073   2.501 -0.1702  0.4662  0.3934
   98MOL   H15531389   2.019   1.040   2.715 -0.5997 -0.5081 -0.0489
   98MOL   H15631390   2.189   0.946   2.796  0.1104  1.1124 -0.8967
   98MOL   H15731391   2.351   0.603   2.592  0.1031 -0.7327 -1.1189
   98MOL   H15831392   2.172   0.615   2.428  1.1363  0.8889 -0.8917
   98MOL   H15931393   1.992   0.779   2.444 -0.6012 -0.9603 -0.6312
   98MOL   H16031394   1.893   1.021   2.438 -0.7386 -0.2847  1.6366
   98MOL   H16131395   1.911   1.166   2.522  0.1480  0.5266  0.9395
   98MOL   C16231396   2.089   1.110   2.422  0.1319 -0.2651  0.0053
   98MOL   C16331397   2.037   1.182   2.296 -0.2025  0.1078 -0.1454
   98MOL   C16431398   2.007   1.099   2.183  0.1758  0.1888 -0.4641
   98MOL   C16531399   1.937   1.149   2.074 -0.3963 -0.0672 -0.5302
   98MOL  Cl16631400   1.901   1.046   1.944  0.0070  0.3112  0.6668
   98MOL   C16731401   1.901   1.285   2.065 -0.0795 -0.5247  0.2739
   98MOL   C16831402   1.922   1.362   2.177 -1.0104  0.2896  0.2288
   98MOL   C16931403   1.991   1.315   2.291 -0.1702  0.1928  0.1033
   98MOL   C17031404   2.203   1.184   2.501  0.0818  0.0251  0.0043
   98MOL   H17131405   2.142   1.021   2.391 -0.0009 -1.0716  2.0292
   98MOL   H17231406   2.037   0.996   2.185 -1.8971 -0.4341  2.1496
   98MOL   H17331407   1.860   1.332   1.977 -1.8676 -1.7701  0.4134
   98MOL   H17431408   1.903   1.468   2.162  2.1407  1.2617  2.5500
   98MOL   H17531409   2.008   1.381   2.374  0.2582  0.0643  0.1200
   98MOL   H17631410   2.154   1.263   2.557  1.3000  0.2945  0.7012
   98MOL   H17731411   2.241   1.118   2.579  0.3745 -1.1087 -1.0917
   98MOL   C17831412   2.324   1.244   2.427 -0.1907  0.1542  0.1073
   98MOL   C17931413   2.393   1.342   2.522  0.3641  0.0259 -0.0947
   98MOL   C18031414   2.406   1.477   2.486 -0.1938  0.0892 -0.5070
   98MOL   C18131415   2.463   1.562   2.586 -0.0791 -0.1587  0.3395
   98MOL  Cl18231416   2.449   1.732   2.555  0.4305 -0.1040 -0.3224
   98MOL   C18331417   2.512   1.507   2.708 -0.3746 -0.1658  0.4649
   98MOL   C18431418   2.506   1.371   2.733 -0.6340 -0.7073  0.2366
   98MOL   C18531419   2.447   1.294   2.641  0.5248 -0.3823 -0.2119
   98MOL   C18631420   2.430   1.150   2.363 -0.4109 -0.6056  0.0681
   98MOL   H18731421   2.280   1.300   2.344  0.1717  3.0058  1.8090
   98MOL   H18831422   2.376   1.521   2.392  0.1770  1.2812 -0.0889
   98MOL   H18931423   2.558   1.563   2.789 -1.6430  0.9574  0.4271
   98MOL   H19031424   2.544   1.330   2.825 -1.8274 -0.4746  0.8533
   98MOL   H19131425   2.450   1.188   2.661  1.5938 -0.7326 -2.1417
   98MOL   H19231426   2.523   1.205   2.355 -0.9133  0.0803 -1.1802
   98MOL   H19331427   2.446   1.069   2.434 -2.7414  0.1857  1.5870
   98MOL   C19431428   2.396   1.102   2.221 -0.9676  0.6289 -0.0500
   98MOL   C19531429   2.398   1.223   2.121  0.0259 -0.4988 -0.4233
   98MOL   C19631430   2.289   1.253   2.039 -0.4125  0.0677 -0.5213
   98MOL   C19731431   2.291   1.372   1.966 -0.1468  0.8730  0.5901
   98MOL  Cl19831432   2.140   1.419   1.901  0.1780  0.0536 -0.2392
   98MOL   C19931433   2.399   1.464   1.971 -0.0943  0.0749  0.3714
   98MOL   C20031434   2.508   1.430   2.050 -0.2792  0.2590  0.7615
   98MOL   C20131435   2.507   1.314   2.125 -0.6476 -0.5153  1.2499
   98MOL   C20231436   2.499   0.996   2.170  0.1719 -0.3775  0.5613
   98MOL   H20331437   2.297   1.058   2.231 -1.9489  3.1366  1.6612
   98MOL   H20431438   2.202   1.188   2.043 -1.1570  0.8034 -3.3631
   98MOL   H20531439   2.408   1.548   1.904  0.1890  0.8082  1.3267
   98MOL   H20631440   2.599   1.488   2.049  0.4071 -0.8317 -0.3170
   98MOL   H20731441   2.596   1.293   2.183  0.0113 -0.4995  0.2585
   98MOL   H20831442   2.601   1.032   2.155 -0.1720 -0.1841 -1.4169
   98MOL   H20931443   2.507   0.923   2.251 -0.7052  0.0732  1.0591
   98MOL   C21031444   2.460   0.924   2.040 -0.4522 -0.0780  0.6782
   98MOL   C21131445   2.572   0.830   2.000  0.4855 -0.3696  0.0346
   98MOL   C21231446   2.611   0.728   2.089 -0.1252 -0.3255  0.6280
   98MOL   C21331447   2.709   0.631   2.050  0.2403  0.3475  0.1349
   98MOL  Cl21431448   2.741   0.503   2.152  0.2176  0.2358  0.0656
   98MOL   C21531449   2.771   0.652   1.921 -0.7830  0.2711 -0.0477
   98MOL   C21631450   2.749   0.775   1.848 -0.3353 -0.1831 -1.1843
   98MOL   C21731451   2.638   0.852   1.875 -0.5897  0.2972 -0.0980
   98MOL   C21831452   2.313   0.867   2.056  0.7667 -0.4623 -0.4111
   98MOL   H21931453   2.445   0.997   1.960  1.3912  0.1486  0.5210
   98MOL   H22031454   2.563   0.718   2.184  2.0073 -0.3161  1.7397
   98MOL   H22131455   2.841   0.580   1.881  0.4331  0.5330  1.5795
   98MOL   H22231456   2.812   0.798   1.764 -0.4993 -1.0668 -1.5551
   98MOL   H22331457   2.597   0.920   1.802  0.0713  2.2600  1.2936
   98MOL   H22431458   2.303   0.814   2.151  0.7176  2.1034  1.0738
   98MOL   H22531459   2.245   0.953   2.055 -1.0578 -1.8891 -0.5555
   98MOL   C22631460   2.261   0.765   1.958 -0.5593  0.4230  0.4186
   98MOL   C22731461   2.160   0.677   2.035 -0.4231  0.5335 -0.1300
   98MOL   C22831462   2.194   0.569   2.120  0.3772  0.5086  0.1772
   98MOL   C22931463   2.107   0.497   2.202  0.2969 -0.1922  0.2000
   98MOL  Cl23031464   2.173   0.365   2.301 -0.8064  0.1491 -0.2387
   98MOL   C23131465   1.972   0.534   2.200 -0.1228  0.0887  0.6519
   98MOL   C23231466   1.935   0.635   2.112  0.1212 -0.2923 -0.5936
   98MOL   C23331467   2.030   0.707   2.035 -0.2061 -0.2821  0.5904
   98MOL   C23431468   2.216   0.838   1.823 -0.5973  0.1630  0.4259
   98MOL   H23531469   2.342   0.697   1.930 -2.8152 -3.1926  2.3063
   98MOL   H23631470   2.293   0.528   2.132 -0.1916 -0.7899  0.6217
   98MOL   H23731471   1.893   0.477   2.245 -1.0572  0.3457 -0.6259
   98MOL   H23831472   1.833   0.670   2.107  0.2478  0.5561  1.8373
   98MOL   H23931473   1.998   0.798   1.987  1.8213  0.4758  0.6375
   98MOL   H24031474   2.118   0.885   1.835 -0.2147  0.6611  1.6599
   98MOL   H24131475   2.270   0.931   1.808  0.3717 -0.2041  1.5934
   98MOL   C24231476   2.216   0.758   1.693 -0.5122 -0.1240 -0.4995
   98MOL   C24331477   2.121   0.821   1.595  0.0091  0.2581 -0.8101
   98MOL   C24431478   2.158   0.919   1.504  0.1137  0.1063 -0.0202
   98MOL   C24531479   2.066   0.970   1.405 -0.4682  0.5179  0.3151
   98MOL  Cl24631480   2.126   1.070   1.281  0.4790  0.2439 -0.0948
   98MOL   C24731481   1.932   0.930   1.413  0.4099 -0.0765  0.2719
   98MOL   C24831482   1.889   0.837   1.511 -0.0903  1.2401  0.1461
   98MOL   C24931483   1.983   0.789   1.597 -0.3391 -0.1318 -0.2582
   98MOL   C25031484   2.363   0.727   1.645  0.8027  0.4523 -0.9393
   98MOL   H25131485   2.163   0.665   1.711  0.7535 -0.8651 -0.5738
   98MOL   H25231486   2.264   0.939   1.505  0.0182  0.6494 -0.2698
   98MOL   H25331487   1.853   0.973   1.353  1.3431 -0.1191 -1.0186
   98MOL   H25431488   1.785   0.810   1.516 -0.4365  2.6145  0.5209
   98MOL   H25531489   1.959   0.714   1.671 -0.1806  0.9166  0.8685
   98MOL   H25631490   2.409   0.826   1.645 -1.1449  1.3785 -0.2890
   98MOL   H25731491   2.415   0.669   1.722  0.6690  2.2761  0.5539
   98MOL   C25831492   2.368   0.648   1.512 -0.8684  0.0111  0.5304
   98MOL   C25931493   2.515   0.647   1.475 -0.2048  0.4767  0.0639
   98MOL   C26031494   2.554   0.691   1.352 -0.6221  0.3022  0.4791
   98MOL   C26131495   2.687   0.707   1.312 -0.8794  0.2042 -0.1470
   98MOL  Cl26231496   2.725   0.781   1.166 -0.0659 -0.2532  0.3124
   98MOL   C26331497   2.787   0.661   1.401 -0.1594 -0.7249 -0.3415
   98MOL   C26431498   2.750   0.607   1.529  0.5343 -0.3528 -0.4312
   98MOL   C26531499   2.613   0.602   1.571 -0.1316 -0.1267  0.3530
   98MOL   C26631500   2.323   0.497   1.530  0.0905  0.2472 -0.0302
   98MOL   H26731501   2.311   0.698   1.434  0.5785 -0.0627 -0.5960
   98MOL   H26831502   2.479   0.727   1.284  0.4398  2.8550  0.5933
   98MOL   H26931503   2.892   0.682   1.387 -0.3270  2.6294  2.8915
   98MOL   H27031504   2.828   0.581   1.599  0.4228  0.5915  0.0470
   98MOL   H27131505   2.595   0.575   1.674 -2.1377  1.7946  0.5456
   98MOL   H27231506   2.400   0.426   1.498 -0.6783  0.7908 -3.2789
   98MOL   H27331507   2.322   0.469   1.635 -0.9369 -1.3040 -0.4382
   98MOL   C27431508   2.186   0.480   1.463 -0.2113  0.3879  0.2122
   98MOL   C27531509   2.194   0.511   1.311 -0.5532 -0.3850 -0.6210
   98MOL   C27631510   2.113   0.615   1.260  0.0932  0.1920  0.2171
   98MOL   C27731511   2.112   0.651   1.128  0.0809 -0.0211  0.1113
   98MOL  Cl27831512   2.013   0.781   1.070  0.4055  0.2228 -0.0905
   98MOL   C27931513   2.198   0.585   1.042  0.2959  0.0410  0.1083
   98MOL   C28031514   2.279   0.477   1.082  0.1687  0.0612 -0.1784
   98MOL   C28131515   2.274   0.444   1.219 -0.5342  1.0056 -0.8556
   98MOL   C28231516   2.124   0.341   1.486 -0.2920  0.0718 -0.3256
   98MOL   H28331517   2.120   0.553   1.511 -0.1351 -0.5166  1.7362
   98MOL   H28431518   2.046   0.669   1.326 -0.1429 -1.6962  1.5661
   98MOL   H28531519   2.215   0.627   0.944 -1.0262 -0.2240 -0.2417
   98MOL   H28631520   2.352   0.429   1.019 -1.1011 -2.3739  0.1444
   98MOL   H28731521   2.342   0.364   1.245  1.4095  2.3065 -1.8234
   98MOL   H28831522   2.056   0.318   1.405  0.9329 -0.8068 -1.1320
   98MOL   H28931523   2.207   0.276   1.456  0.1579 -0.9959  2.9713
   98MOL   C29031524   2.067   0.326   1.628  0.5228  0.5838  0.1551
   98MOL   C29131525   1.935   0.398   1.651  0.2768  1.0891  0.5411
   98MOL   C29231526   1.836   0.409   1.550 -0.4401  0.2234  0.8134
   98MOL   C29331527   1.715   0.464   1.583  0.4187 -0.3227  1.1032
   98MOL  Cl29431528   1.587   0.467   1.465  0.1939  0.3868  0.0606
   98MOL   C29531529   1.695   0.521   1.711 -0.0685  0.4434  1.8589
   98MOL   C29631530   1.789   0.506   1.810 -0.3527  0.2169 -0.1137
   98MOL   C29731531   1.912   0.439   1.782 -0.6392  0.7124 -0.5060
   98MOL   C29831532   2.050   0.170   1.659 -0.5442 -0.4017 -0.7268
   98MOL   H29931533   2.130   0.375   1.702  0.0766 -0.1290  1.0134
   98MOL   H30031534   1.849   0.388   1.445  0.6738 -1.7070  1.3057
   98MOL   H30131535   1.596   0.559   1.734 -0.0510  0.8216  1.3369
   98MOL   H30231536   1.785   0.556   1.905 -2.0041  1.5578 -0.8575
   98MOL   H30331537   1.988   0.422   1.856 -1.7598  0.5403  0.6348
   98MOL   H30431538   2.000   0.168   1.756  1.3802 -2.9307  0.2566
   98MOL   H30531539   1.972   0.131   1.593 -0.9564 -0.8297  0.0112
   98MOL   C30631540   2.168   0.075   1.679  0.6569  0.7010 -0.7216
   98MOL   C30731541   2.276   0.146   1.763 -0.2513  0.0365  0.6354
   98MOL   C30831542   2.399   0.180   1.705  0.3795 -0.4288  0.4146
   98MOL   C30931543   2.495   0.248   1.790  0.6626 -0.6199 -0.0537
   98MOL  Cl31031544   2.652   0.291   1.741  0.2136 -0.2298 -0.0261
   98MOL   C31131545   2.471   0.270   1.925  0.0367  0.2727  0.5115
   98MOL   C31231546   2.342   0.250   1.974 -0.3521  0.1255  0.1351
   98MOL   C31331547   2.249   0.189   1.896  0.5359 -0.9206 -0.2971
   98MOL   C31431548   2.127   8.371   1.752 -0.5517 -0.0249  1.0290
   98MOL   H31531549   2.228   0.051   1.591  0.3848 -0.1323 -0.6884
   98MOL   H31631550   2.418   0.160   1.600  0.4687 -1.5197  0.6295
   98MOL   H31731551   2.550   0.308   1.989  0.1287  0.2631  0.4052
   98MOL   H31831552   2.324   0.276   2.077  0.3377  2.3472 -0.2609
   98MOL   H31931553   2.164   0.159   1.955  3.6752 -2.5098  3.6337
   98MOL   H32031554   2.033   8.325   1.720  0.1043 -1.3850  1.0149
   98MOL   H32131555   2.190   8.283   1.739  0.6269  1.0441 -0.5432
   98MOL   H32231556   2.116   8.395   1.858  0.0312  4.4065  0.1725
   99MOL     C131557   1.411   3.803   2.113 -0.3202 -0.4223 -0.3988
   99MOL     C231558   1.400   3.951   2.065 -0.2171  0.0333  0.5499
   99MOL     C331559   1.389   3.978   1.929 -0.2462 -1.2634 -0.8387
   99MOL     C431560   1.380   4.119   1.895 -0.4102  0.2169 -0.3892
   99MOL    Cl531561   1.380   4.152   1.728 -0.1499  0.1161 -0.0139
   99MOL     C631562   1.376   4.220   1.996  0.2280  0.2589 -0.6292
   99MOL     C731563   1.372   4.179   2.133 -0.5789 -0.0596  0.0474
   99MOL     C831564   1.396   4.046   2.164 -0.0074 -0.4470 -0.2749
   99MOL     C931565   1.286   3.739   2.161  0.0041  0.3669 -0.2845
   99MOL    H1031566   1.478   3.793   2.198 -0.1796  1.1549 -0.3059
   99MOL    H1131567   1.401   3.909   1.848 -0.8486  0.4125 -2.4005
   99MOL    H1231568   1.367   4.326   1.974 -0.0157  0.6999  1.4393
   99MOL    H1331569   1.373   4.245   2.219  0.0662 -1.0375  0.7924
   99MOL    H1431570   1.404   4.029   2.271  1.1888 -0.7827 -0.4020
   99MOL    H1531571   1.314   3.635   2.180 -0.0373  0.4490  0.2319
   99MOL    H1631572   1.261   3.788   2.255  0.5244 -0.5748  0.3556
   99MOL    H1731573   1.461   3.749   2.033  0.3318 -1.9245  1.0067
   99MOL    C1831574   1.164   3.744   2.073  0.8552  0.7118 -0.6037
   99MOL    C1931575   1.175   3.662   1.942 -0.0744  0.1014 -0.4272
   99MOL    C2031576   1.200   3.725   1.822  0.2849  0.1020  0.5037
   99MOL    C2131577   1.235   3.654   1.705  0.5736 -0.5076  0.7663
   99MOL   Cl2231578   1.272   3.743   1.564  0.3462  0.0423 -0.2641
   99MOL    C2331579   1.245   3.510   1.709 -0.0353 -0.5923 -0.0711
   99MOL    C2431580   1.206   3.449   1.828  0.1463  0.3576 -1.0071
   99MOL    C2531581   1.174   3.523   1.943  0.4220 -0.5530 -0.3440
   99MOL    C2631582   1.028   3.697   2.143  0.1393 -0.1723  0.2226
   99MOL    H2731583   1.156   3.845   2.033 -0.6995 -0.4284 -3.3044
   99MOL    H2831584   1.202   3.832   1.816  1.4924  0.0497 -0.1074
   99MOL    H2931585   1.280   3.446   1.630  0.7295  0.8542 -0.9370
   99MOL    H3031586   1.220   3.342   1.839  2.1045  0.8232  1.3692
   99MOL    H3131587   1.165   3.465   2.033  2.8435 -2.3532 -1.2199
   99MOL    H3231588   0.955   3.654   2.075  0.4742  0.0032 -0.2525
   99MOL    H3331589   1.053   3.629   2.224  0.0085  2.1881  2.3364
   99MOL    C3431590   0.951   3.822   2.204  0.5955 -0.7071  0.3110
   99MOL    C3531591   0.949   3.941   2.111  0.0451  0.5880  0.3305
   99MOL    C3631592   0.997   4.063   2.162  0.1617  0.1011 -0.4305
   99MOL    C3731593   1.020   4.172   2.074  0.5573 -0.0120  0.1755
   99MOL   Cl3831594   1.065   4.320   2.144 -0.2388  0.0567  0.0694
   99MOL    C3931595   0.991   4.163   1.937 -0.3807 -0.0523  0.3957
   99MOL    C4031596   0.943   4.037   1.884  0.1807 -0.5827  0.3427
   99MOL    C4131597   0.917   3.927   1.973  0.3398  0.3446  0.0818
   99MOL    C4231598   0.805   3.789   2.238 -0.7272  0.3056 -0.2947
   99MOL    H4331599   1.004   3.856   2.292  4.4294  1.1537 -2.5833
   99MOL    H4431600   1.011   4.074   2.268 -1.5257 -2.7919  0.1374
   99MOL    H4531601   1.020   4.243   1.870  1.1913 -1.1765 -0.3047
   99MOL    H4631602   0.933   4.033   1.777  0.9222  1.2246  0.1847
   99MOL    H4731603   0.893   3.828   1.936  0.0896  0.3217  0.2985
   99MOL    H4831604   0.754   3.792   2.142  2.1155  2.6950 -1.8238
   99MOL    H4931605   0.800   3.692   2.286 -1.0634  1.1208  1.3455
   99MOL    C5031606   0.724   3.877   2.339  0.9259  0.3165  0.2259
   99MOL    C5131607   0.770   3.853   2.476  0.8010 -0.2878  0.4679
   99MOL    C5231608   0.699   3.777   2.572 -0.1064  0.8075 -0.6401
   99MOL    C5331609   0.743   3.776   2.712  0.0478  0.3464 -0.5429
   99MOL   Cl5431610   0.659   3.692   2.838  0.5290  0.1537 -0.2533
   99MOL    C5531611   0.859   3.846   2.747 -0.5617 -0.2092  0.1221
   99MOL    C5631612   0.929   3.919   2.652  0.2159  0.0776  0.1867
   99MOL    C5731613   0.879   3.925   2.518 -1.0512  0.4753  0.2890
   99MOL    C5831614   0.693   4.018   2.296 -0.5904 -0.0056  0.1927
   99MOL    H5931615   0.631   3.821   2.326  1.0949 -0.7962  3.4320
   99MOL    H6031616   0.615   3.718   2.540  0.6027 -0.0214 -0.9962
   99MOL    H6131617   0.892   3.851   2.850  0.4474 -3.5262 -0.0051
   99MOL    H6231618   1.010   3.983   2.682  0.0728  0.2847  0.1315
   99MOL    H6331619   0.928   3.991   2.448 -1.0141 -1.0575 -1.1635
   99MOL    H6431620   0.765   4.085   2.342 -0.1612 -1.1389  1.2198
   99MOL    H6531621   0.694   4.023   2.188 -0.9816 -1.1449  0.1194
   99MOL    C6631622   0.549   4.064   2.339  0.1725 -0.6495 -0.3420
   99MOL    C6731623   0.530   4.061   2.491  0.2750 -0.1773  0.3982
   99MOL    C6831624   0.429   3.975   2.540  0.5163  0.5831  0.5153
   99MOL    C6931625   0.410   3.961   2.682 -0.2184 -0.3020 -0.0719
   99MOL   Cl7031626   0.283   3.855   2.730  0.0450  0.0568 -0.1627
   99MOL    C7131627   0.493   4.030   2.774 -0.4083 -0.2403 -0.0609
   99MOL    C7231628   0.593   4.119   2.721  0.0167 -0.7754 -0.1742
   99MOL    C7331629   0.614   4.132   2.582 -0.2779  0.3478 -0.4427
   99MOL    C7431630   0.505   4.200   2.277  0.1249  0.7535  0.0671
   99MOL    H7531631   0.478   3.991   2.300 -0.3089 -0.0609 -0.5988
   99MOL    H7631632   0.365   3.918   2.474  0.3497 -0.0821  1.2482
   99MOL    H7731633   0.469   4.029   2.879 -0.2423  1.9194  0.0144
   99MOL    H7831634   0.654   4.185   2.780  0.2904 -2.5024  1.5194
   99MOL    H7931635   0.697   4.190   2.545 -0.2366 -0.9694 -2.4906
   99MOL    H8031636   0.517   4.279   2.351  0.0198  0.4583  0.4022
   99MOL    H8131637   0.569   4.229   2.194  0.2551  0.1278 -0.0478
   99MOL    C8231638   0.355   4.206   2.244  0.3719  0.7497  0.0657
   99MOL    C8331639   0.260   4.193   2.367  0.1286  0.5430 -0.7953
   99MOL    C8431640   0.277   4.282   2.471 -0.7592 -0.4947  0.8776
   99MOL    C8531641   0.201   4.262   2.589 -0.8260 -0.3566  0.6454
   99MOL   Cl8631642   0.238   4.356   2.728 -0.0214 -0.1211  0.1713
   99MOL    C8731643   0.100   4.164   2.595 -0.0017 -0.8099 -0.4239
   99MOL    C8831644   0.084   4.078   2.490  0.0705  0.1177  0.1661
   99MOL    C8931645   0.166   4.091   2.375 -0.9637  0.0548  0.0478
   99MOL    C9031646   0.316   4.332   2.157  1.1573  0.3340 -0.3356
   99MOL    H9131647   0.332   4.115   2.189 -0.3270 -0.0221  1.6130
   99MOL    H9231648   0.356   4.356   2.465 -1.0739 -0.3207 -1.5307
   99MOL    H9331649   0.053   4.145   2.691 -0.8531 -1.2762 -0.9282
   99MOL    H9431650   0.020   3.991   2.493  0.7957 -0.5189 -1.6210
   99MOL    H9531651   0.156   4.019   2.296  1.3962  0.4755 -0.6811
   99MOL    H9631652   0.210   4.342   2.129  1.0395  0.6552  0.2180
   99MOL    H9731653   0.345   4.422   2.212 -0.8608  0.4544  0.6017
   99MOL    C9831654   0.379   4.323   2.017  0.4400  0.2757  0.1746
   99MOL    C9931655   0.333   4.196   1.940  0.2049  0.1743 -0.0673
   99MOL   C10031656   0.418   4.083   1.926 -0.1569  0.0300  0.3012
   99MOL   C10131657   0.366   3.969   1.864  0.6465  0.2334  0.2995
   99MOL  Cl10231658   0.480   3.849   1.848  0.3364  0.4308  0.4104
   99MOL   C10331659   0.232   3.967   1.815  0.1786  0.5617 -0.5505
   99MOL   C10431660   0.145   4.076   1.839  0.5455  0.2423 -0.2918
   99MOL   C10531661   0.200   4.190   1.898  0.1395 -0.0181  0.5759
   99MOL   C10631662   0.356   4.453   1.936  0.7451  0.3236 -0.4365
   99MOL   H10731663   0.487   4.308   2.019  0.1816 -1.6449  2.9708
   99MOL   H10831664   0.515   4.087   1.973 -0.1840  0.4686  0.3223
   99MOL   H10931665   0.195   3.879   1.765  0.9827 -0.0149 -0.1420
   99MOL   H11031666   0.042   4.067   1.806  0.2176 -2.1058  1.2518
   99MOL   H11131667   0.134   4.273   1.917  1.2232  1.3199 -1.3039
   99MOL   H11231668   0.253   4.488   1.928  1.1999  1.4990 -1.4312
   99MOL   H11331669   0.412   4.530   1.989  1.0649  0.1617 -0.5381
   99MOL   C11431670   0.410   4.461   1.792 -0.0486 -0.5849 -0.5758
   99MOL   C11531671   0.420   4.604   1.752 -0.2014 -0.1702 -0.1993
   99MOL   C11631672   0.528   4.687   1.799 -0.3308 -0.2316  0.3028
   99MOL   C11731673   0.547   4.815   1.755 -0.1246  0.4285  0.0662
   99MOL  Cl11831674   0.691   4.906   1.804  0.2531  0.2335  0.4917
   99MOL   C11931675   0.460   4.867   1.655 -0.3394 -0.2146 -0.1217
   99MOL   C12031676   0.349   4.790   1.616  0.4566 -0.5740 -0.0466
   99MOL   C12131677   0.330   4.662   1.662  0.3845  0.5473  0.4300
   99MOL   C12231678   0.539   4.381   1.756 -0.0719 -0.4618  0.6387
   99MOL   H12331679   0.323   4.414   1.747 -0.6138 -0.7925  0.6884
   99MOL   H12431680   0.593   4.654   1.879  0.8907  1.7487  0.1514
   99MOL   H12531681   0.463   4.967   1.613 -2.1730 -0.5324 -1.0517
   99MOL   H12631682   0.277   4.827   1.543  3.0799  1.4043 -1.7204
   99MOL   H12731683   0.252   4.609   1.608  1.2335  0.2685 -0.5456
   99MOL   H12831684   0.623   4.422   1.810 -0.7330 -0.4427  1.6646
   99MOL   H12931685   0.526   4.278   1.787 -2.3031  0.2023  2.0523
   99MOL   C13031686   0.557   4.377   1.604  0.0568 -0.4809 -0.5031
   99MOL   C13131687   0.689   4.311   1.566 -0.0249  0.6976 -0.3823
   99MOL   C13231688   0.795   4.388   1.515 -0.0678  0.1951  0.5455
   99MOL   C13331689   0.913   4.327   1.480 -0.2732 -0.0972 -0.3062
   99MOL  Cl13431690   1.038   4.413   1.416  0.1034  0.1152  0.0294
   99MOL   C13531691   0.938   4.190   1.492  0.6832  1.1393 -0.0394
   99MOL   C13631692   0.835   4.113   1.556  0.2159 -0.5075 -0.4938
   99MOL   C13731693   0.714   4.173   1.591 -0.2824  0.3485  0.4744
   99MOL   C13831694   0.439   4.310   1.532  0.0204  0.0728 -1.0229
   99MOL   H13931695   0.564   4.478   1.565  1.8472 -0.6677 -0.6938
   99MOL   H14031696   0.783   4.495   1.505 -0.2633  0.1412  0.2042
   99MOL   H14131697   1.034   4.150   1.461 -0.5321 -1.1221 -1.0255
   99MOL   H14231698   0.860   4.011   1.583  0.7687  0.2031  1.8272
   99MOL   H14331699   0.639   4.107   1.630 -0.5626  0.4350  0.0790
   99MOL   H14431700   0.417   4.222   1.592 -0.3556 -0.9104 -2.5690
   99MOL   H14531701   0.350   4.370   1.552  1.6011  2.9588 -2.3980
   99MOL   C14631702   0.460   4.253   1.382 -0.2845  0.4178 -0.3549
   99MOL   C14731703   0.341   4.161   1.347 -0.0967 -0.1921  0.6932
   99MOL   C14831704   0.216   4.221   1.337 -1.0683  0.1024  0.6120
   99MOL   C14931705   0.103   4.156   1.301 -0.1106  0.1080 -0.2386
   99MOL  Cl15031706   8.387   4.249   1.312 -0.0919  0.1000  0.0021
   99MOL   C15131707   0.118   4.014   1.278  0.2302 -0.3800  0.6633
   99MOL   C15231708   0.243   3.951   1.285 -0.9894  0.3887  0.2950
   99MOL   C15331709   0.358   4.026   1.317  0.0160 -0.4985 -0.5717
   99MOL   C15431710   0.501   4.356   1.272  0.3688 -0.3809 -1.1897
   99MOL   H15531711   0.543   4.184   1.393 -0.7340  0.2738  2.3902
   99MOL   H15631712   0.212   4.323   1.372 -1.3265  1.3050 -2.7172
   99MOL   H15731713   0.029   3.957   1.254 -0.1635  0.8090 -0.8060
   99MOL   H15831714   0.259   3.845   1.280  0.4180  0.6146 -0.1499
   99MOL   H15931715   0.460   3.991   1.325  0.2727  0.4192  0.2652
   99MOL   H16031716   0.413   4.408   1.233  0.7120  2.0006  1.0875
   99MOL   H16131717   0.559   4.435   1.320 -0.6439  0.9950 -2.1504
   99MOL   C16231718   0.561   4.277   1.158 -1.1056  0.1615  0.3926
   99MOL   C16331719   0.530   4.341   1.026  0.4542 -0.7659 -0.2562
   99MOL   C16431720   0.567   4.471   1.007  0.2861  0.7874 -0.1614
   99MOL   C16531721   0.540   4.536   0.885  0.4230  0.2097 -0.7099
   99MOL  Cl16631722   0.584   4.701   0.866  0.0006 -0.3271  0.0342
   99MOL   C16731723   0.485   4.465   0.780 -1.8986  0.6151  1.2515
   99MOL   C16831724   0.440   4.333   0.803 -0.9079 -0.8343  0.4498
   99MOL   C16931725   0.457   4.271   0.931  0.1495 -0.7435  0.3957
   99MOL   C17031726   0.713   4.253   1.166 -0.1987  1.0922  0.2652
   99MOL   H17131727   0.514   4.179   1.148 -0.0434 -0.1192 -2.2237
   99MOL   H17231728   0.625   4.530   1.077  0.1349  0.0176  0.6244
   99MOL   H17331729   0.483   4.507   0.681 -0.2925  0.5389  1.1765
   99MOL   H17431730   0.404   4.271   0.722  0.1430  0.4387 -1.0090
   99MOL   H17531731   0.412   4.176   0.952 -1.5797 -0.0146  0.0713
   99MOL   H17631732   0.766   4.345   1.141  1.7761  0.3792  1.7182
   99MOL   H17731733   0.749   4.238   1.267 -0.1297  0.9334  0.2173
   99MOL   C17831734   0.786   4.149   1.081 -0.0727  0.0509  0.6308
   99MOL   C17931735   0.924   4.187   1.040 -0.2154 -0.9925 -0.7134
   99MOL   C18031736   1.022   4.183   1.138 -0.1223  0.1173 -0.3213
   99MOL   C18131737   1.155   4.207   1.098 -0.2884  0.3285  0.7739
   99MOL  Cl18231738   1.287   4.192   1.204  0.0879 -0.0203  0.0195
   99MOL   C18331739   1.185   4.243   0.958  0.6997  0.1742  0.1428
   99MOL   C18431740   1.082   4.252   0.869  0.4100  0.3752 -0.0692
   99MOL   C18531741   0.948   4.232   0.909 -0.2561  0.3577 -1.1674
   99MOL   C18631742   0.788   4.010   1.153 -0.4599 -0.3626  0.7661
   99MOL   H18731743   0.728   4.143   0.989 -0.8870 -0.6503  1.1740
   99MOL   H18831744   1.010   4.154   1.241  1.0851 -0.3507 -0.2950
   99MOL   H18931745   1.290   4.255   0.934  0.7652  1.3548  0.9967
   99MOL   H19031746   1.104   4.288   0.770 -0.2622  1.0514  0.0166
   99MOL   H19131747   0.871   4.248   0.835 -1.0409  2.6353  0.0840
   99MOL   H19231748   0.847   4.007   1.244  0.4007  0.5920  0.2430
   99MOL   H19331749   0.685   3.985   1.180 -0.7113 -0.7493 -0.4875
   99MOL   C19431750   0.834   3.895   1.057 -0.2514  0.4067  0.1241
   99MOL   C19531751   0.989   3.881   1.064  0.4072  0.1821 -0.5112
   99MOL   C19631752   1.070   3.896   0.953 -0.8304 -0.2436  0.0122
   99MOL   C19731753   1.208   3.883   0.968 -0.3886  0.0901  0.4277
   99MOL  Cl19831754   1.312   3.922   0.838  0.0824  0.5041 -0.1017
   99MOL   C19931755   1.270   3.827   1.087  0.5633 -0.9243 -0.7693
   99MOL   C20031756   1.188   3.814   1.199 -0.3852 -0.1320 -0.2588
   99MOL   C20131757   1.048   3.845   1.191  0.1802 -0.6615  0.6993
   99MOL   C20231758   0.761   3.761   1.105  0.1461  0.1041  0.3986
   99MOL   H20331759   0.807   3.911   0.953  0.7927 -1.4702 -0.4524
   99MOL   H20431760   1.029   3.945   0.866 -1.1294 -0.5235 -0.0052
   99MOL   H20531761   1.377   3.812   1.084  0.9269  0.8499  1.7004
   99MOL   H20631762   1.228   3.787   1.296 -1.1153 -0.2823  0.0038
   99MOL   H20731763   0.984   3.842   1.278 -1.0787  1.9605 -0.0843
   99MOL   H20831764   0.800   3.736   1.204  1.8098  0.5163 -0.1272
   99MOL   H20931765   0.654   3.777   1.112  0.0240 -0.1728 -0.7961
   99MOL   C21031766   0.780   3.644   1.001 -0.6092 -0.2654 -0.3243
   99MOL   C21131767   0.915   3.569   1.020 -0.1611  0.5541 -0.3518
   99MOL   C21231768   1.000   3.540   0.910 -0.6710 -0.2720  0.0735
   99MOL   C21331769   1.128   3.483   0.932  0.1450 -0.2743 -0.7277
   99MOL  Cl21431770   1.226   3.447   0.795 -0.3501 -0.0989 -0.1266
   99MOL   C21531771   1.172   3.457   1.059  0.1887  0.3583  0.1428
   99MOL   C21631772   1.086   3.480   1.169  0.7825  0.0019  0.0051
   99MOL   C21731773   0.954   3.539   1.149 -0.7132  0.0810  0.0644
   99MOL   C21831774   0.671   3.532   1.012 -0.0462  0.0546  0.0317
   99MOL   H21931775   0.776   3.689   0.902  0.1581  2.8210  0.9743
   99MOL   H22031776   0.969   3.562   0.808 -0.9347 -0.7845  0.0384
   99MOL   H22131777   1.277   3.434   1.073  0.6488  2.1688 -0.1205
   99MOL   H22231778   1.112   3.467   1.273  1.6288  0.6516 -0.1253
   99MOL   H22331779   0.889   3.552   1.235 -0.5753  0.2533  0.1429
   99MOL   H22431780   0.715   3.434   1.029 -1.8177 -0.8627 -0.5888
   99MOL   H22531781   0.627   3.533   1.112 -0.4632  0.7923 -0.1561
   99MOL   C22631782   0.564   3.519   0.902  0.1099  0.2811  0.5783
   99MOL   C22731783   0.466   3.639   0.917 -0.0041 -0.0622 -0.1898
   99MOL   C22831784   0.346   3.622   0.991 -0.0114 -0.1634  0.0386
   99MOL   C22931785   0.245   3.717   0.993  0.9075 -0.9171  0.7170
   99MOL  Cl23031786   0.096   3.693   1.067  0.1840 -0.1929  0.2163
   99MOL   C23131787   0.267   3.835   0.926  0.0613  0.3634  0.3810
   99MOL   C23231788   0.378   3.865   0.844 -0.1393 -0.4925 -0.4348
   99MOL   C23331789   0.480   3.760   0.838  0.1765 -0.2463  0.7251
   99MOL   C23431790   0.618   3.511   0.761 -0.4167 -0.2596  0.1515
   99MOL   H23531791   0.506   3.430   0.926 -2.2646  2.1160  1.8546
   99MOL   H23631792   0.333   3.530   1.046 -0.1324 -0.6393 -0.7665
   99MOL   H23731793   0.193   3.913   0.934  0.2201  0.5849 -0.2283
   99MOL   H23831794   0.375   3.957   0.788 -2.0015 -0.5131 -0.4057
   99MOL   H23931795   0.559   3.766   0.765 -0.4205 -0.8617  0.0143
   99MOL   H24031796   0.527   3.504   0.702 -0.2369 -0.1336 -0.1395
   99MOL   H24131797   0.674   3.601   0.736  1.2122 -1.2880 -0.0058
   99MOL   C24231798   0.706   3.387   0.717  0.5684  0.6075 -0.2519
   99MOL   C24331799   0.659   3.252   0.772 -0.3300 -0.2832  0.1834
   99MOL   C24431800   0.523   3.222   0.755 -0.0277  0.3515 -0.4310
   99MOL   C24531801   0.475   3.107   0.823 -1.1772  0.3188  0.3555
   99MOL  Cl24631802   0.301   3.068   0.845  0.1037 -0.1838  0.2772
   99MOL   C24731803   0.560   3.011   0.876  0.0934 -0.1289 -0.3470
   99MOL   C24831804   0.704   3.034   0.879  0.6186  0.6979  0.1102
   99MOL   C24931805   0.743   3.155   0.825 -0.7804 -0.2839 -0.2868
   99MOL   C25031806   0.719   3.366   0.569 -0.1200  0.3856  0.1949
   99MOL   H25131807   0.803   3.406   0.762 -0.1559  2.4040  0.6356
   99MOL   H25231808   0.460   3.289   0.700 -1.4784 -1.9448 -1.6242
   99MOL   H25331809   0.510   2.922   0.912 -1.4012  1.2194  1.0082
   99MOL   H25431810   0.778   2.963   0.913 -1.9809 -0.7717  3.0341
   99MOL   H25531811   0.850   3.169   0.825 -0.8303  0.1133 -0.6883
   99MOL   H25631812   0.816   3.317   0.561 -0.5973 -0.3251 -1.3484
   99MOL   H25731813   0.634   3.308   0.534 -0.1566 -0.1041  1.0785
   99MOL   C25831814   0.736   3.485   0.466  0.1072 -0.6848 -0.5048
   99MOL   C25931815   0.838   3.586   0.504  0.5348 -0.0719 -0.1608
   99MOL   C26031816   0.799   3.722   0.514  0.1754 -0.1288  0.2613
   99MOL   C26131817   0.900   3.816   0.550 -0.4072 -0.1905 -0.3499
   99MOL  Cl26231818   0.862   3.981   0.586  0.2903  0.2267  0.2617
   99MOL   C26331819   1.031   3.782   0.561 -0.2104 -0.3583 -0.3312
   99MOL   C26431820   1.066   3.649   0.542 -0.0600 -0.0315  0.7672
   99MOL   C26531821   0.970   3.551   0.515  0.1532  0.0601  0.3344
   99MOL   C26631822   0.756   3.426   0.330 -0.0257 -0.2802  0.3816
   99MOL   H26731823   0.638   3.534   0.469  1.7110  2.6300 -0.5820
   99MOL   H26831824   0.695   3.747   0.499  0.5355  2.7312  2.2344
   99MOL   H26931825   1.105   3.852   0.595 -1.6930  1.2619 -0.3887
   99MOL   H27031826   1.166   3.616   0.563  0.5964  1.2216 -0.3735
   99MOL   H27131827   0.985   3.445   0.507 -0.3298 -0.1510  1.9667
   99MOL   H27231828   0.855   3.381   0.326  1.1615  2.3464 -0.6906
   99MOL   H27331829   0.679   3.352   0.310 -2.3400  1.8893  1.0234
   99MOL   C27431830   0.761   3.519   0.206  0.1459  0.8658  0.3266
   99MOL   C27531831   0.811   3.453   0.077  0.2390 -0.4015  0.3899
   99MOL   C27631832   0.920   3.509   0.007  0.4331  0.5089 -0.2108
   99MOL   C27731833   0.971   3.446   8.327  0.4847  0.1349  0.5482
   99MOL  Cl27831834   1.087   3.520   8.224  0.3043 -0.0750 -0.5864
   99MOL   C27931835   0.924   3.321   8.283  0.1914 -0.1068  0.3035
   99MOL   C28031836   0.813   3.270   8.348 -0.5436  1.3222  0.1485
   99MOL   C28131837   0.757   3.334   0.025  0.5595  0.1239  0.8793
   99MOL   C28231838   0.633   3.604   0.194 -0.3332  0.5290  0.9145
   99MOL   H28331839   0.842   3.591   0.219  1.7161 -0.4593 -1.7226
   99MOL   H28431840   0.966   3.600   0.043  1.6039 -0.4304  0.6578
   99MOL   H28531841   0.964   3.271   8.197 -2.0596 -1.4234 -0.0365
   99MOL   H28631842   0.790   3.175   8.302  1.2411  0.4900  0.8979
   99MOL   H28731843   0.672   3.287   0.073  1.0521 -0.3110  1.3284
   99MOL   H28831844   0.553   3.539   0.162  1.1583 -0.1759 -1.4997
   99MOL   H28931845   0.608   3.635   0.296 -0.6879 -1.9293  1.6058
   99MOL   C29031846   0.648   3.730   0.102  0.4808 -0.0049  0.3252
   99MOL   C29131847   0.516   3.764   0.039 -0.4987 -0.3942  0.3875
   99MOL   C29231848   0.501   3.744   8.334  0.0517  0.3459  0.5817
   99MOL   C29331849   0.388   3.771   8.262  0.2536  0.2806  0.1749
   99MOL  Cl29431850   0.367   3.739   8.095  0.2762  0.1901  0.0559
   99MOL   C29531851   0.284   3.834   8.330 -0.7311 -0.0171  0.5745
   99MOL   C29631852   0.285   3.851   0.031 -1.3241  0.4421 -0.6778
   99MOL   C29731853   0.397   3.812   0.109 -0.3979  0.4164  0.1235
   99MOL   C29831854   0.710   3.853   0.182 -0.5452  0.2035 -0.5465
   99MOL   H29931855   0.716   3.695   0.025 -0.7343  0.9694 -1.2240
   99MOL   H30031856   0.591   3.714   8.281 -0.1954  1.0324 -0.2398
   99MOL   H30131857   0.199   3.857   8.266  0.2531 -0.2067 -0.8265
   99MOL   H30231858   0.200   3.890   0.084 -0.5232  1.3603 -0.0334
   99MOL   H30331859   0.403   3.835   0.214  1.0867  1.2497 -0.1395
   99MOL   H30431860   0.636   3.892   0.252 -0.3401  0.1300 -0.2851
   99MOL   H30531861   0.796   3.830   0.245 -0.2037  2.5737 -0.0853
   99MOL   C30631862   0.750   3.974   0.087 -0.0706  0.0166 -0.3691
   99MOL   C30731863   0.718   4.115   0.148 -0.3507  0.2490  0.1972
   99MOL   C30831864   0.758   4.143   0.281 -1.0329  0.5001  0.0250
   99MOL   C30931865   0.721   4.263   0.346 -0.2180 -0.9758  0.6739
   99MOL  Cl31031866   0.752   4.288   0.510 -0.2177  0.2746  0.2009
   99MOL   C31131867   0.659   4.362   0.265  0.1512 -0.5461  0.2140
   99MOL   C31231868   0.630   4.340   0.131  0.4694 -0.6895 -0.2635
   99MOL   C31331869   0.663   4.220   0.074 -0.2396 -0.4615  0.0311
   99MOL   C31431870   0.899   3.968   0.054 -0.2464  0.0264 -0.1231
   99MOL   H31531871   0.693   3.977   8.430 -1.8406 -0.5022  0.6782
   99MOL   H31631872   0.805   4.069   0.344  0.6045  2.8515  1.6505
   99MOL   H31731873   0.625   4.459   0.299  0.8051 -0.0269 -0.5990
   99MOL   H31831874   0.579   4.415   0.073  1.1696  0.6347  0.8206
   99MOL   H31931875   0.625   4.204   8.409 -2.5461 -0.3944  0.8649
   99MOL   H32031876   0.922   4.032   8.404  2.3903 -0.4476  0.1775
   99MOL   H32131877   0.968   4.001   0.131 -1.7987 -0.2727  1.4230
   99MOL   H32231878   0.933   3.869   0.023 -0.4649 -0.6377  1.6723
  100MOL     C131879   1.577   6.078   2.853  0.1916  0.0703  0.6145
  100MOL     C231880   1.688   5.983   2.890  0.2398  0.1565 -0.5696
  100MOL     C331881   1.669   5.843   2.887 -0.2971  0.2590  0.2512
  100MOL     C431882   1.773   5.763   2.941 -0.0735  0.0796  0.4879
  100MOL    Cl531883   1.771   5.590   2.936 -0.2478  0.1480 -0.4669
  100MOL     C631884   1.891   5.818   2.999  0.7293 -1.3021  0.1414
  100MOL     C731885   1.913   5.958   2.998  0.9219  0.3047  0.0163
  100MOL     C831886   1.808   6.044   2.941  0.2906  0.0779 -0.2746
  100MOL     C931887   1.492   6.113   2.974  0.2241 -0.0793 -0.5065
  100MOL    H1031888   1.521   6.038   2.768  1.3490  0.3134 -0.2667
  100MOL    H1131889   1.582   5.791   2.852  1.0784 -1.5541 -0.5584
  100MOL    H1231890   1.974   5.756   3.031  0.7306 -1.8357 -0.8466
  100MOL    H1331891   1.988   6.005   3.060 -1.9275  1.2769  2.9055
  100MOL    H1431892   1.825   6.150   2.943 -0.9542  0.2938 -0.4360
  100MOL    H1531893   1.433   6.027   3.005 -0.0232 -0.0522 -0.9025
  100MOL    H1631894   1.560   6.126   3.059  1.2926 -0.9312 -1.2177
  100MOL    H1731895   1.621   6.174   2.827 -1.5021 -0.2134 -3.6000
  100MOL    C1831896   1.405   6.240   2.964  0.3924 -0.1065  0.3060
  100MOL    C1931897   1.291   6.210   2.868  0.2531 -0.3444  0.4109
  100MOL    C2031898   1.250   6.298   2.763 -0.0898 -0.5029 -0.0568
  100MOL    C2131899   1.127   6.276   2.692  0.0454 -0.3034 -1.0324
  100MOL   Cl2231900   1.076   6.381   2.569 -0.4733 -0.0359  0.3939
  100MOL    C2331901   1.052   6.155   2.714  0.1275  0.5926 -0.4623
  100MOL    C2431902   1.097   6.064   2.810  0.1634  0.4075  0.3084
  100MOL    C2531903   1.212   6.091   2.882  0.3119 -1.2757 -0.0822
  100MOL    C2631904   1.350   6.296   3.102  0.0873 -0.4929  0.1229
  100MOL    H2731905   1.467   6.313   2.912 -1.0536 -0.8359 -2.5577
  100MOL    H2831906   1.302   6.391   2.754 -2.2556  0.9498  1.8018
  100MOL    H2931907   0.966   6.134   2.652 -0.3486  1.5356 -0.1441
  100MOL    H3031908   1.039   5.977   2.838 -2.3559  1.5456 -1.1499
  100MOL    H3131909   1.242   6.016   2.953 -1.4726 -2.8449 -0.9372
  100MOL    H3231910   1.271   6.226   3.131 -0.5137  0.2391  0.2800
  100MOL    H3331911   1.426   6.277   3.177  0.8704  0.2629 -0.4796
  100MOL    C3431912   1.297   6.441   3.095 -0.1107 -0.3787 -0.5108
  100MOL    C3531913   1.143   6.445   3.074  0.1331 -0.0652  0.2096
  100MOL    C3631914   1.059   6.381   3.176 -0.1713  0.7123  0.1649
  100MOL    C3731915   0.925   6.361   3.150 -0.3069 -0.4357 -0.2628
  100MOL   Cl3831916   0.832   6.293   3.281  0.0334  0.2828  0.3056
  100MOL    C3931917   0.869   6.404   3.026 -0.6389  0.1053  0.1112
  100MOL    C4031918   0.950   6.468   2.932 -0.3683 -0.5360  0.5530
  100MOL    C4131919   1.089   6.497   2.954  0.8258  0.4060 -0.8152
  100MOL    C4231920   1.346   6.522   3.219 -0.6926 -0.3786 -0.2193
  100MOL    H4331921   1.336   6.495   3.009  1.2901  2.0115  1.5369
  100MOL    H4431922   1.098   6.338   3.267  0.4029  2.3444  0.7048
  100MOL    H4531923   0.763   6.396   3.004 -1.0970  1.2882  1.7290
  100MOL    H4631924   0.917   6.496   2.834  0.3261  0.3146  0.5586
  100MOL    H4731925   1.154   6.539   2.878  2.3425 -1.1744 -0.4330
  100MOL    H4831926   1.283   6.610   3.231 -0.6818 -0.5044  0.8337
  100MOL    H4931927   1.320   6.467   3.309  2.7536 -1.3019  0.2862
  100MOL    C5031928   1.499   6.559   3.232  0.1426 -0.4193  0.0339
  100MOL    C5131929   1.542   6.681   3.152  0.0595 -0.0316 -0.2174
  100MOL    C5231930   1.490   6.807   3.187 -0.2887  0.4105 -0.3311
  100MOL    C5331931   1.534   6.920   3.124  0.3551  0.1135  0.4795
  100MOL   Cl5431932   1.477   7.078   3.175 -0.1061 -0.0193  0.2090
  100MOL    C5531933   1.626   6.910   3.018 -0.0169 -0.3411 -0.0175
  100MOL    C5631934   1.671   6.784   2.975  0.0092 -0.3412 -0.0642
  100MOL    C5731935   1.631   6.671   3.041  0.3854  0.0596  0.6578
  100MOL    C5831936   1.544   6.582   3.383  0.6758  0.3030  0.0856
  100MOL    H5931937   1.542   6.471   3.185 -2.2726 -3.1514  2.7290
  100MOL    H6031938   1.429   6.824   3.274  0.3635 -0.2604  0.2628
  100MOL    H6131939   1.665   6.998   2.968  0.2985 -0.3197  0.2633
  100MOL    H6231940   1.748   6.769   2.901 -0.3148  1.3295 -0.7740
  100MOL    H6331941   1.677   6.580   3.005  2.9381  1.1076  1.1643
  100MOL    H6431942   1.645   6.622   3.370  1.0646 -0.9014 -0.8243
  100MOL    H6531943   1.478   6.650   3.436  0.2423  0.2224 -0.3424
  100MOL    C6631944   1.564   6.454   3.466 -0.7154  0.1735  0.0534
  100MOL    C6731945   1.631   6.333   3.404 -0.3180 -0.0733  0.3702
  100MOL    C6831946   1.580   6.211   3.440 -0.8591 -0.0278  0.2714
  100MOL    C6931947   1.634   6.089   3.386 -0.2145  0.8123 -0.6630
  100MOL   Cl7031948   1.559   5.946   3.446  0.1308 -0.2169 -0.0069
  100MOL    C7131949   1.750   6.099   3.303 -0.6467  0.2279  0.1609
  100MOL    C7231950   1.809   6.227   3.284 -0.0455  0.6072  0.9165
  100MOL    C7331951   1.746   6.339   3.327 -0.3301 -0.2476 -0.6633
  100MOL    C7431952   1.637   6.507   3.599 -0.1814  0.3726 -0.3767
  100MOL    H7531953   1.461   6.429   3.493 -0.3279 -2.1858 -0.6021
  100MOL    H7631954   1.498   6.209   3.510 -1.2473 -1.1570 -0.2154
  100MOL    H7731955   1.798   6.009   3.266  0.4730  0.4684  1.0240
  100MOL    H7831956   1.904   6.230   3.232 -0.4797 -2.4020 -0.1662
  100MOL    H7931957   1.790   6.437   3.322  3.0906 -1.5228  2.1454
  100MOL    H8031958   1.744   6.507   3.579  0.3811  0.0899  2.4439
  100MOL    H8131959   1.614   6.610   3.625 -0.5236  0.3607 -0.6307
  100MOL    C8231960   1.609   6.427   3.737 -0.4976 -0.2725  0.8649
  100MOL    C8331961   1.725   6.462   3.832 -0.4536  0.3230 -0.3886
  100MOL    C8431962   1.742   6.587   3.893 -0.2387 -0.3110  0.8765
  100MOL    C8531963   1.844   6.611   3.983  0.0880  0.2741  0.0605
  100MOL   Cl8631964   1.849   6.756   4.075  0.4866  0.2497  0.0399
  100MOL    C8731965   1.942   6.504   3.996 -0.2628 -0.1277 -0.6459
  100MOL    C8831966   1.934   6.386   3.929 -1.0538 -0.0520 -0.4691
  100MOL    C8931967   1.818   6.363   3.852 -0.0206 -0.4067 -0.0551
  100MOL    C9031968   1.467   6.455   3.797 -0.1112  0.1082  0.7713
  100MOL    H9131969   1.610   6.322   3.707 -0.4922 -0.2306  0.7188
  100MOL    H9231970   1.668   6.665   3.880  1.3028  0.7524 -1.7250
  100MOL    H9331971   2.018   6.523   4.071 -1.1404  0.5458  0.0845
  100MOL    H9431972   2.019   6.318   3.931 -0.9322  0.1158  1.3110
  100MOL    H9531973   1.810   6.265   3.808 -0.3553 -0.7065  0.6725
  100MOL    H9631974   1.457   6.562   3.816 -0.4191 -0.1112  1.8570
  100MOL    H9731975   1.398   6.435   3.715  1.7664 -2.6431 -0.1996
  100MOL    C9831976   1.424   6.378   3.929 -0.1377  0.0539  0.1486
  100MOL    C9931977   1.504   6.420   4.056 -0.7865  0.3580 -0.6828
  100MOL   C10031978   1.601   6.335   4.111 -0.5219 -0.4043 -0.4352
  100MOL   C10131979   1.680   6.382   4.221  0.3892 -0.7465 -0.3167
  100MOL  Cl10231980   1.788   6.276   4.295 -0.1370  0.1089 -0.2286
  100MOL   C10331981   1.651   6.506   4.280 -0.1901 -0.1120  0.2807
  100MOL   C10431982   1.551   6.585   4.226 -0.9491 -0.7525  0.0458
  100MOL   C10531983   1.481   6.543   4.113 -0.1544 -0.6141  0.6633
  100MOL   C10631984   1.270   6.391   3.950  0.1137 -0.2041  0.3358
  100MOL   H10731985   1.441   6.271   3.921  0.6697  0.3324 -2.1414
  100MOL   H10831986   1.627   6.241   4.065 -0.5869 -0.4482 -0.3809
  100MOL   H10931987   1.700   6.534   4.372 -0.5722 -0.0448  0.4664
  100MOL   H11031988   1.534   6.678   4.277 -2.0790 -0.0991 -1.4950
  100MOL   H11131989   1.410   6.618   4.081  0.5876  0.3177  1.1593
  100MOL   H11231990   1.248   6.357   4.052 -1.3461  1.2266  0.5111
  100MOL   H11331991   1.239   6.495   3.955  2.6900  0.7002 -1.5087
  100MOL   C11431992   1.184   6.305   3.858 -0.0316  0.1733 -0.0526
  100MOL   C11531993   1.118   6.200   3.947 -0.8339  0.3608 -0.0916
  100MOL   C11631994   1.153   6.059   3.929 -0.8809 -0.1339  0.0404
  100MOL   C11731995   1.090   5.960   4.010 -1.0072 -0.6174 -0.1333
  100MOL  Cl11831996   1.119   5.794   3.973 -0.1260 -0.0458  0.1901
  100MOL   C11931997   1.003   5.993   4.115 -0.0585 -0.5393 -0.4558
  100MOL   C12031998   0.969   6.129   4.135 -0.3834  0.1256 -0.1942
  100MOL   C12131999   1.023   6.229   4.047  0.4374 -0.4127 -0.5501
  100MOL   C12232000   1.078   6.398   3.783  0.1471 -0.6051 -0.7083
  100MOL   H12332001   1.240   6.252   3.781 -0.2947  0.3403 -0.3571
  100MOL   H12432002   1.224   6.022   3.856 -2.4297 -2.0083 -0.5762
  100MOL   H12532003   0.972   5.905   4.170 -0.2779 -0.4018 -0.3550
  100MOL   H12632004   0.913   6.158   4.222 -1.4890 -1.1675 -0.4647
  100MOL   H12732005   0.991   6.330   4.065 -1.0867 -1.0650  0.5239
  100MOL   H12832006   0.980   6.361   3.812  1.1531 -1.9912  1.0279
  100MOL   H12932007   1.072   6.497   3.830 -0.4590 -0.5336 -0.9334
  100MOL   C13032008   1.096   6.416   3.631  0.1678 -0.7868  0.2208
  100MOL   C13132009   1.098   6.282   3.559 -0.2105  0.3701  0.0969
  100MOL   C13232010   0.997   6.184   3.588  0.4737 -0.0916  0.3248
  100MOL   C13332011   1.005   6.056   3.529  0.0441  0.0157 -0.4208
  100MOL  Cl13432012   0.872   5.949   3.558 -0.3262 -0.4160 -0.0014
  100MOL   C13532013   1.112   6.023   3.443 -0.0646  0.3144 -0.1030
  100MOL   C13632014   1.212   6.119   3.413 -0.2730 -0.9778  0.4944
  100MOL   C13732015   1.206   6.246   3.473  0.0775  0.7846  0.3308
  100MOL   C13832016   0.992   6.506   3.567  0.2304 -0.7688 -0.0435
  100MOL   H13932017   1.190   6.468   3.613  0.0974 -0.7906 -0.1555
  100MOL   H14032018   0.912   6.221   3.642 -0.0205 -0.0866 -0.4538
  100MOL   H14132019   1.107   5.928   3.392  0.4443 -0.3248  1.0339
  100MOL   H14232020   1.292   6.105   3.341 -2.1196 -0.7099 -1.6782
  100MOL   H14332021   1.297   6.303   3.455  0.9560 -0.5981  0.2963
  100MOL   H14432022   0.960   6.477   3.466  0.1217  0.2406 -0.2983
  100MOL   H14532023   0.906   6.498   3.633  0.1492 -0.8214 -0.1547
  100MOL   C14632024   1.023   6.662   3.537  0.1567 -0.1605 -0.3858
  100MOL   C14732025   1.069   6.736   3.663 -0.1123 -0.1573  0.6720
  100MOL   C14832026   0.980   6.808   3.745  0.2323 -0.1405  0.6853
  100MOL   C14932027   1.028   6.857   3.868 -0.0243  0.2293  0.5751
  100MOL  Cl15032028   0.925   6.946   3.973 -0.2799 -0.1884 -0.1007
  100MOL   C15132029   1.158   6.826   3.916 -0.0377 -0.1736 -0.0328
  100MOL   C15232030   1.247   6.773   3.822 -0.0575 -0.4593 -0.1230
  100MOL   C15332031   1.203   6.736   3.696  0.0143 -0.3606  0.5365
  100MOL   C15432032   1.095   6.695   3.405 -0.4577 -0.0110 -0.5083
  100MOL   H15532033   0.925   6.707   3.520  0.8423  0.3680 -3.0880
  100MOL   H15632034   0.879   6.833   3.717 -0.1229 -1.0234  1.1727
  100MOL   H15732035   1.192   6.862   4.011 -2.7769 -1.9176  1.6915
  100MOL   H15832036   1.350   6.756   3.851  1.2163  1.3749 -3.2657
  100MOL   H15932037   1.273   6.713   3.617 -1.4203  0.4878 -1.0125
  100MOL   H16032038   1.203   6.700   3.420 -0.3881 -5.0252  1.4927
  100MOL   H16132039   1.070   6.608   3.345 -0.5246  0.8414 -1.7386
  100MOL   C16232040   1.052   6.819   3.324  0.0001  0.3511  0.0554
  100MOL   C16332041   1.073   6.947   3.409  0.4605 -0.0820 -0.1799
  100MOL   C16432042   1.198   6.969   3.463 -0.2557 -0.6167 -0.1732
  100MOL   C16532043   1.217   7.081   3.549 -0.1301  0.0184 -0.1221
  100MOL  Cl16632044   1.362   7.094   3.636 -0.6133  0.2009  0.2822
  100MOL   C16732045   1.112   7.169   3.581  0.2300 -0.0413 -0.1190
  100MOL   C16832046   0.987   7.153   3.506 -0.1932  0.2282  0.0046
  100MOL   C16932047   0.966   7.039   3.425 -0.5694  0.2492  0.4433
  100MOL   C17032048   1.122   6.825   3.180 -0.3843 -0.6317  0.1837
  100MOL   H17132049   0.946   6.803   3.310  0.3052 -1.0587 -0.6585
  100MOL   H17232050   1.284   6.905   3.456  0.7997 -0.0342  5.2621
  100MOL   H17332051   1.128   7.261   3.635 -1.1443  0.3546 -0.3409
  100MOL   H17432052   0.912   7.231   3.511 -1.0672 -0.7186  2.1385
  100MOL   H17532053   0.869   7.028   3.379 -1.0937  1.8412  1.1385
  100MOL   H17632054   1.230   6.828   3.189 -0.1542  0.1181 -2.5456
  100MOL   H17732055   1.102   6.730   3.130  0.2320 -0.0509 -1.2101
  100MOL   C17832056   1.089   6.948   3.094 -0.5441 -0.1185  0.0613
  100MOL   C17932057   1.171   6.948   2.964  0.6198 -0.0436 -0.5572
  100MOL   C18032058   1.168   6.828   2.884  0.5475 -0.7317  0.1818
  100MOL   C18132059   1.251   6.819   2.773  0.6482 -0.3254  0.0135
  100MOL  Cl18232060   1.239   6.685   2.674  0.0081  0.3415  0.1722
  100MOL   C18332061   1.345   6.924   2.748 -0.6491  0.5497  0.2674
  100MOL   C18432062   1.347   7.039   2.829  1.1309  0.1049 -0.2525
  100MOL   C18532063   1.260   7.056   2.935 -0.5126  0.2184  0.4275
  100MOL   C18632064   0.935   6.947   3.050  0.0871  0.0170 -0.3232
  100MOL   H18732065   1.107   7.033   3.159 -0.3924  1.2380 -1.7339
  100MOL   H18832066   1.106   6.743   2.908  2.0277 -2.1140 -0.8088
  100MOL   H18932067   1.409   6.903   2.664 -1.5856 -0.0300 -0.3147
  100MOL   H19032068   1.412   7.123   2.810  0.5397  1.0329  1.5949
  100MOL   H19132069   1.267   7.141   3.002  1.9618  0.7769 -0.4694
  100MOL   H19232070   0.923   6.899   2.954  0.0640 -0.7639  0.0684
  100MOL   H19332071   0.889   6.870   3.111 -0.9597 -0.0139 -1.1447
  100MOL   C19432072   0.857   7.084   3.053  0.2481  0.2261  0.4927
  100MOL   C19532073   0.943   7.209   3.074 -0.2889  0.1032  0.7591
  100MOL   C19632074   0.930   7.283   3.191 -0.1613 -0.1713  0.4413
  100MOL   C19732075   1.008   7.396   3.211 -0.4319 -0.3149  0.1343
  100MOL  Cl19832076   0.988   7.487   3.351  0.0140  0.2142 -0.1588
  100MOL   C19932077   1.096   7.440   3.105  0.4012  0.7777  0.8266
  100MOL   C20032078   1.096   7.375   2.986 -0.0925  0.3859  0.0547
  100MOL   C20132079   1.021   7.262   2.970 -0.2519  0.3879 -0.0519
  100MOL   C20232080   0.771   7.099   2.928  0.3650 -0.3655  0.4172
  100MOL   H20332081   0.790   7.068   3.137  0.6914  0.1608  0.8398
  100MOL   H20432082   0.868   7.239   3.267 -1.1800 -2.5833 -1.7062
  100MOL   H20532083   1.160   7.527   3.110 -1.9000  2.7677 -2.6768
  100MOL   H20632084   1.174   7.393   2.913  1.1734 -0.1521  1.2497
  100MOL   H20732085   1.020   7.206   2.878  0.2208  0.7673 -0.2892
  100MOL   H20832086   0.718   7.192   2.948 -1.9192 -0.8077 -3.0756
  100MOL   H20932087   0.831   7.116   2.839  0.0923 -0.1153  0.2819
  100MOL   C21032088   0.664   6.988   2.890  0.2402  0.0418 -0.2126
  100MOL   C21132089   0.598   6.933   3.015 -0.7544 -0.3614 -0.1131
  100MOL   C21232090   0.489   6.996   3.077 -0.5256 -0.6369 -0.4552
  100MOL   C21332091   0.424   6.934   3.181  0.0429  1.1360  0.0186
  100MOL  Cl21432092   0.285   7.017   3.247  0.0605  0.1277  0.0885
  100MOL   C21532093   0.457   6.800   3.221 -0.1312 -0.6774  0.1036
  100MOL   C21632094   0.571   6.735   3.160 -0.5510  0.3490 -0.8342
  100MOL   C21732095   0.639   6.806   3.053 -0.1860 -0.9912  0.1707
  100MOL   C21832096   0.558   7.043   2.789 -0.5615  0.5870 -0.4691
  100MOL   H21932097   0.726   6.912   2.843  2.1553  1.1145  0.5252
  100MOL   H22032098   0.451   7.086   3.032 -1.1194 -0.6457  0.0188
  100MOL   H22132099   0.402   6.757   3.304 -1.3375  2.1953  0.8567
  100MOL   H22232100   0.591   6.636   3.198  2.6178  1.0882 -0.4259
  100MOL   H22332101   0.717   6.748   3.005 -0.0517  0.0267 -0.8523
  100MOL   H22432102   0.482   6.965   2.775 -0.6633  0.6853 -0.4657
  100MOL   H22532103   0.511   7.133   2.830 -1.3068 -0.3368  0.7654
  100MOL   C22632104   0.609   7.062   2.649 -0.3968 -0.0481  0.3715
  100MOL   C22732105   0.713   6.958   2.600 -0.1810  0.4826 -0.0468
  100MOL   C22832106   0.673   6.823   2.578  0.5303  0.1068  0.3205
  100MOL   C22932107   0.767   6.726   2.532 -0.1710  1.1369  0.6100
  100MOL  Cl23032108   0.706   6.566   2.515  0.0220  0.1127 -0.0555
  100MOL   C23132109   0.899   6.761   2.507  0.0422 -0.3753 -0.0490
  100MOL   C23232110   0.942   6.894   2.539 -0.4905  0.2761  0.2708
  100MOL   C23332111   0.849   6.992   2.579  1.0077  0.0901  0.2728
  100MOL   C23432112   0.480   7.074   2.562 -0.3223  0.4045 -0.0641
  100MOL   H23532113   0.663   7.157   2.655 -1.4716  0.8035 -2.6395
  100MOL   H23632114   0.572   6.792   2.601 -0.3128  0.9212 -2.1159
  100MOL   H23732115   0.970   6.690   2.467  0.2134 -0.5649  0.5815
  100MOL   H23832116   1.044   6.917   2.514 -0.2920 -1.3790 -0.5071
  100MOL   H23932117   0.878   7.096   2.589 -1.6402  0.6488  2.6090
  100MOL   H24032118   0.431   6.980   2.585 -0.5613  0.5746  0.1328
  100MOL   H24132119   0.409   7.152   2.591  1.3691  2.4965 -1.4238
  100MOL   C24232120   0.502   7.090   2.410  0.2930  0.3893 -0.1352
  100MOL   C24332121   0.378   7.047   2.333 -1.0687 -0.2073 -0.4118
  100MOL   C24432122   0.248   7.101   2.364  0.2133 -0.2118 -0.6150
  100MOL   C24532123   0.135   7.056   2.301  0.3138 -0.1885 -0.0189
  100MOL  Cl24632124   8.409   7.103   2.362 -0.1593 -0.1755  0.3707
  100MOL   C24732125   0.144   6.949   2.208  0.7119 -0.1450  0.5439
  100MOL   C24832126   0.269   6.888   2.181 -0.7612 -0.9815 -0.1088
  100MOL   C24932127   0.388   6.936   2.244  0.7924  1.3626 -0.1282
  100MOL   C25032128   0.546   7.235   2.372  0.1775 -0.3253 -0.2592
  100MOL   H25132129   0.588   7.030   2.383 -1.0573 -2.2734  1.3299
  100MOL   H25232130   0.247   7.167   2.449 -1.5484  0.0501 -0.8169
  100MOL   H25332131   0.050   6.910   2.172  1.2392 -0.3722 -0.5982
  100MOL   H25432132   0.286   6.810   2.109 -1.1157  0.4146 -1.7248
  100MOL   H25532133   0.482   6.883   2.235 -0.1556 -0.4070  0.2673
  100MOL   H25632134   0.474   7.284   2.307  1.2801  1.1327 -0.4258
  100MOL   H25732135   0.546   7.297   2.462 -0.4733  1.6708 -1.5851
  100MOL   C25832136   0.680   7.235   2.300 -0.0576 -0.1239  0.0534
  100MOL   C25932137   0.667   7.168   2.165  0.5163 -0.2469  0.0403
  100MOL   C26032138   0.721   7.037   2.137  0.1067 -0.6468  0.0994
  100MOL   C26132139   0.707   6.975   2.013 -0.1760 -0.2485 -0.0156
  100MOL  Cl26232140   0.770   6.817   1.997  0.1882 -0.4855  0.1874
  100MOL   C26332141   0.642   7.041   1.911  0.6268 -0.7119 -0.1910
  100MOL   C26432142   0.584   7.167   1.937 -0.4038 -0.3382  0.1422
  100MOL   C26532143   0.596   7.227   2.058 -0.3625  0.5050 -0.5270
  100MOL   C26632144   0.735   7.382   2.291  0.2064 -0.0933  0.0426
  100MOL   H26732145   0.756   7.176   2.351 -0.0670  0.5646  0.8647
  100MOL   H26832146   0.768   6.976   2.212 -2.5646 -1.2421  1.3548
  100MOL   H26932147   0.624   6.989   1.817 -0.1757 -0.2140 -0.3254
  100MOL   H27032148   0.529   7.215   1.858  2.1765  1.2163 -0.7659
  100MOL   H27132149   0.550   7.325   2.064 -0.5877  0.3350  0.6882
  100MOL   H27232150   0.648   7.439   2.260 -0.4872 -1.7723 -1.0797
  100MOL   H27332151   0.768   7.421   2.388  2.0625 -2.6054  0.4807
  100MOL   C27432152   0.856   7.412   2.195 -0.1253  0.5470  0.4415
  100MOL   C27532153   0.895   7.562   2.184  0.7137  0.2618 -0.1518
  100MOL   C27632154   0.863   7.629   2.065 -0.4541  0.3338  0.1588
  100MOL   C27732155   0.887   7.766   2.051 -0.3211 -0.2080 -0.2198
  100MOL  Cl27832156   0.841   7.845   1.907 -0.1466 -0.2201  0.4400
  100MOL   C27932157   0.946   7.840   2.159  0.3756 -0.2375 -0.5064
  100MOL   C28032158   0.984   7.776   2.276  0.1923  0.5299 -0.4258
  100MOL   C28132159   0.958   7.636   2.292 -0.1562 -0.1612  0.0285
  100MOL   C28232160   0.976   7.338   2.249  0.3339  0.2657 -0.7451
  100MOL   H28332161   0.827   7.379   2.095 -0.7650  1.0232  0.4729
  100MOL   H28432162   0.794   7.586   1.994  1.4704  0.7955 -2.0346
  100MOL   H28532163   0.975   7.943   2.144 -0.8402 -0.2052 -2.8204
  100MOL   H28632164   1.038   7.834   2.351  0.6995  0.9353 -1.0968
  100MOL   H28732165   0.985   7.585   2.384 -0.5642 -1.6967 -0.6922
  100MOL   H28832166   0.997   7.385   2.345  2.1975 -0.2830 -0.8746
  100MOL   H28932167   0.962   7.231   2.266  1.9526 -0.2071 -2.1589
  100MOL   C29032168   1.092   7.344   2.145  0.6348  0.3703  0.0883
  100MOL   C29132169   1.224   7.304   2.212  0.3443 -0.3753 -0.6322
  100MOL   C29232170   1.331   7.396   2.225  0.1754 -0.7932 -0.0207
  100MOL   C29332171   1.455   7.364   2.289  0.0876  0.5035 -0.4936
  100MOL  Cl29432172   1.581   7.479   2.293 -0.1296 -0.1836 -0.0178
  100MOL   C29532173   1.475   7.233   2.339 -0.2209  0.2469 -0.8428
  100MOL   C29632174   1.362   7.144   2.333 -0.4884  0.2280  0.2333
  100MOL   C29732175   1.243   7.180   2.272 -0.2557 -0.2275 -0.0923
  100MOL   C29832176   1.066   7.256   2.009  1.0135  0.4469  0.6068
  100MOL   H29932177   1.103   7.447   2.112 -1.6342  1.0431  1.3045
  100MOL   H30032178   1.322   7.496   2.184 -1.4172  0.1056  2.3624
  100MOL   H30132179   1.568   7.209   2.388  0.5637  2.9312 -0.9481
  100MOL   H30232180   1.375   7.047   2.380  2.1885  1.9964  3.3619
  100MOL   H30332181   1.159   7.115   2.250 -1.1053  1.1259 -0.9366
  100MOL   H30432182   1.054   7.150   2.028 -1.9408  0.5651 -0.3668
  100MOL   H30532183   0.974   7.288   1.960  1.4629  1.0387  0.1316
  100MOL   C30632184   1.187   7.277   1.909 -0.4402 -0.3274 -0.4229
  100MOL   C30732185   1.212   7.150   1.824  0.1976 -0.4916  0.2352
  100MOL   C30832186   1.343   7.101   1.804  0.0466 -1.0077 -0.6939
  100MOL   C30932187   1.365   6.978   1.733 -0.3525 -0.5861 -0.0367
  100MOL  Cl31032188   1.525   6.916   1.731  0.2922  0.0300 -0.2901
  100MOL   C31132189   1.259   6.914   1.679 -0.4296  0.0691  0.8855
  100MOL   C31232190   1.128   6.960   1.697 -0.3829 -0.2658  0.1591
  100MOL   C31332191   1.104   7.084   1.762 -0.3693  0.5134  0.5071
  100MOL   C31432192   1.184   7.396   1.815 -0.2337 -0.3834 -0.0455
  100MOL   H31532193   1.274   7.296   1.972 -1.5190  0.2205  0.9232
  100MOL   H31632194   1.428   7.157   1.842  0.5609 -1.9849 -0.3796
  100MOL   H31732195   1.274   6.842   1.600  0.2768  3.7940 -2.5736
  100MOL   H31832196   1.039   6.909   1.664 -0.6985 -0.8639  1.8711
  100MOL   H31932197   1.006   7.129   1.771  0.1196  1.7691 -0.3445
  100MOL   H32032198   1.110   7.383   1.736  0.5406  0.7924 -0.9817
  100MOL   H32132199   1.170   7.489   1.871 -1.7245  0.5269 -1.8700
  100MOL   H32232200   1.279   7.432   1.776  0.1328 -0.1969  1.0133
  101MOL     C132201   2.319   0.684   5.114 -0.2315  0.1056 -0.2895
  101MOL     C232202   2.375   0.546   5.103  0.2208  0.8196 -0.4281
  101MOL     C332203   2.401   0.474   5.225  0.0702  0.0067  0.2839
  101MOL     C432204   2.452   0.348   5.213 -0.4850 -0.3324 -0.8499
  101MOL    Cl532205   2.474   0.265   5.362  0.0769 -0.1304  0.1979
  101MOL     C632206   2.488   0.290   5.089  0.3003  0.0267 -0.3849
  101MOL     C732207   2.472   0.367   4.973  0.0721 -0.1725  0.1549
  101MOL     C832208   2.416   0.497   4.977  0.2520  0.1298 -0.4142
  101MOL     C932209   2.405   0.792   5.180 -0.2445  0.0076  0.3243
  101MOL    H1032210   2.216   0.676   5.149 -0.7368 -2.5471 -2.2788
  101MOL    H1132211   2.376   0.524   5.317 -1.4757  1.1408 -0.7125
  101MOL    H1232212   2.518   0.187   5.082  0.2026  0.1397 -2.6056
  101MOL    H1332213   2.496   0.338   4.872  2.3156  1.5058  0.1917
  101MOL    H1432214   2.412   0.559   4.889 -1.4699 -1.1715 -1.2612
  101MOL    H1532215   2.434   0.742   5.272 -0.6771  0.6795  0.8282
  101MOL    H1632216   2.504   0.798   5.134 -1.1290 -2.0984 -1.9333
  101MOL    H1732217   2.292   0.721   5.015 -1.1338  0.2972  0.0259
  101MOL    C1832218   2.334   0.919   5.217 -0.7487 -0.0494  0.7635
  101MOL    C1932219   2.215   0.901   5.306 -0.0294  0.7945 -0.9717
  101MOL    C2032220   2.087   0.898   5.261 -0.2538  0.2974  0.1125
  101MOL    C2132221   1.977   0.869   5.346  0.0761  0.1063  0.4678
  101MOL   Cl2232222   1.823   0.871   5.273  0.0832  0.2921 -0.1086
  101MOL    C2332223   1.993   0.842   5.483  0.3803 -0.8549 -0.1658
  101MOL    C2432224   2.124   0.855   5.530  0.0692 -0.0387  0.3067
  101MOL    C2532225   2.230   0.871   5.445 -0.7035  0.6882  0.4374
  101MOL    C2632226   2.423   1.020   5.291 -0.2233  0.1776  0.5274
  101MOL    H2732227   2.294   0.961   5.125  1.0111  0.9082  0.4033
  101MOL    H2832228   2.072   0.943   5.164  0.5902  1.5476  0.5593
  101MOL    H2932229   1.911   0.831   5.552  0.6553 -1.1292  0.1183
  101MOL    H3032230   2.150   0.850   5.635  1.8333 -0.1938 -0.1261
  101MOL    H3132231   2.325   0.874   5.497 -1.0498 -0.1544  1.1270
  101MOL    H3232232   2.467   0.967   5.375  1.6332  0.3481 -0.3087
  101MOL    H3332233   2.511   1.053   5.235 -0.4537  0.0086  0.0654
  101MOL    C3432234   2.361   1.151   5.335  0.6026 -0.1755 -0.2028
  101MOL    C3532235   2.440   1.228   5.443 -0.5052  0.0345 -0.2449
  101MOL    C3632236   2.397   1.228   5.577 -0.1367  0.1092 -0.0421
  101MOL    C3732237   2.483   1.279   5.675 -0.0905  0.8928 -0.0123
  101MOL   Cl3832238   2.437   1.280   5.838  0.2933  0.0802  0.3588
  101MOL    C3932239   2.609   1.338   5.638 -0.0359  0.1154 -0.8709
  101MOL    C4032240   2.641   1.354   5.501 -0.3308 -0.4685  0.2196
  101MOL    C4132241   2.562   1.290   5.408 -0.1572  0.3880 -0.2695
  101MOL    C4232242   2.324   1.240   5.214 -0.1219 -0.1146  0.0926
  101MOL    H4332243   2.266   1.133   5.385  2.2352 -0.4398  2.9200
  101MOL    H4432244   2.297   1.189   5.594 -0.0770  0.4740  1.1543
  101MOL    H4532245   2.676   1.387   5.706  0.4140 -1.0628 -0.4496
  101MOL    H4632246   2.737   1.397   5.475 -1.6727  1.9949 -0.8718
  101MOL    H4732247   2.584   1.286   5.302  0.9765 -0.1035 -0.0222
  101MOL    H4832248   2.413   1.254   5.152 -1.9779 -1.7957 -3.0844
  101MOL    H4932249   2.263   1.182   5.145 -2.8375 -0.4871  2.7157
  101MOL    C5032250   2.245   1.367   5.252  0.4751 -0.0724  0.2427
  101MOL    C5132251   2.336   1.479   5.274 -0.2402 -0.5960 -0.2220
  101MOL    C5232252   2.429   1.529   5.179  0.4890  0.1757  0.5558
  101MOL    C5332253   2.537   1.610   5.222  0.4675  0.1830 -0.8969
  101MOL   Cl5432254   2.650   1.680   5.112 -0.1796 -0.3779 -0.0256
  101MOL    C5532255   2.552   1.642   5.357 -0.5341 -0.1017 -0.4328
  101MOL    C5632256   2.454   1.609   5.453  0.1444  0.4471 -0.2368
  101MOL    C5732257   2.337   1.532   5.406 -0.1025  0.1562 -0.2802
  101MOL    C5832258   2.138   1.410   5.152  0.4392  0.2502  0.3571
  101MOL    H5932259   2.183   1.345   5.339 -0.2660  1.0332  0.0045
  101MOL    H6032260   2.422   1.505   5.074 -1.5559  2.4398  0.1361
  101MOL    H6132261   2.636   1.708   5.373 -1.5286  0.9908  0.4582
  101MOL    H6232262   2.462   1.634   5.558 -0.1202  1.9194 -0.5497
  101MOL    H6332263   2.258   1.506   5.474  0.8409 -1.9199  0.0696
  101MOL    H6432264   2.102   1.509   5.180 -0.5531 -0.2693  0.9498
  101MOL    H6532265   2.185   1.420   5.054  0.0008 -0.8304  0.0185
  101MOL    C6632266   2.016   1.319   5.123 -0.4791  0.3996 -0.0276
  101MOL    C6732267   1.918   1.324   5.244  0.0499  0.2436  0.2478
  101MOL    C6832268   1.937   1.230   5.351 -0.9063  0.4555 -1.4944
  101MOL    C6932269   1.854   1.243   5.468  0.7196 -0.1570 -0.3346
  101MOL   Cl7032270   1.888   1.146   5.603  0.2404 -0.0085  0.0953
  101MOL    C7132271   1.751   1.338   5.468 -0.3570 -0.1146 -0.0708
  101MOL    C7232272   1.733   1.434   5.362 -0.5621 -0.1250 -0.8202
  101MOL    C7332273   1.828   1.435   5.259 -0.3600  0.1223  0.0183
  101MOL    C7432274   1.949   1.354   4.988 -0.2245 -0.0642 -0.6784
  101MOL    H7532275   2.045   1.217   5.100  2.1063  1.0818  0.0465
  101MOL    H7632276   2.012   1.153   5.358  0.3919  1.7841 -0.4591
  101MOL    H7732277   1.691   1.351   5.557 -0.6928  3.1931 -0.7031
  101MOL    H7832278   1.656   1.509   5.366  0.5314  1.0348 -1.2060
  101MOL    H7932279   1.821   1.509   5.181  2.5667 -0.4038 -0.7973
  101MOL    H8032280   1.862   1.289   4.987  0.9994 -1.7398 -0.0525
  101MOL    H8132281   1.909   1.454   4.972  0.4206  0.1317 -1.1170
  101MOL    C8232282   2.036   1.334   4.852  0.5023 -0.0137  0.3272
  101MOL    C8332283   2.106   1.198   4.847  0.4031  0.8959  0.1777
  101MOL    C8432284   2.248   1.185   4.864 -0.4050  0.0991  0.1358
  101MOL    C8532285   2.309   1.062   4.854 -0.4580  0.7602 -0.2537
  101MOL   Cl8632286   2.485   1.041   4.857 -0.1734 -0.2799  0.0828
  101MOL    C8732287   2.230   0.946   4.828  0.8263 -0.0378  0.3307
  101MOL    C8832288   2.085   0.956   4.823 -0.2395  0.0050 -0.2795
  101MOL    C8932289   2.031   1.083   4.821 -0.0372  0.2098  0.0854
  101MOL    C9032290   1.949   1.364   4.728 -0.5958  0.1020 -0.6263
  101MOL    H9132291   2.114   1.411   4.848  0.3396  0.0957 -1.4194
  101MOL    H9232292   2.316   1.265   4.890 -0.4126  0.4079 -0.7903
  101MOL    H9332293   2.285   0.853   4.831  0.5522 -0.1351  3.8949
  101MOL    H9432294   2.019   0.875   4.799 -0.5827 -0.4216  2.0675
  101MOL    H9532295   1.924   1.096   4.809  0.3008  1.1870 -2.0506
  101MOL    H9632296   1.873   1.290   4.707 -0.5234 -0.3530  0.6428
  101MOL    H9732297   1.896   1.458   4.745 -0.6180 -0.1425  0.7073
  101MOL    C9832298   2.016   1.393   4.594  0.5867  0.0137 -0.1006
  101MOL    C9932299   2.122   1.498   4.606  0.7473  0.2779 -0.8095
  101MOL   C10032300   2.255   1.460   4.653  0.2479  0.4906 -0.2050
  101MOL   C10132301   2.356   1.554   4.669 -0.6345  0.2714  0.3669
  101MOL  Cl10232302   2.511   1.497   4.737 -0.0425 -0.0622 -0.0826
  101MOL   C10332303   2.329   1.688   4.636  0.1016  0.0329  0.1386
  101MOL   C10432304   2.200   1.725   4.591 -0.1416  0.2326  0.0285
  101MOL   C10532305   2.102   1.632   4.574  0.1418  0.8150 -0.1188
  101MOL   C10632306   2.075   1.271   4.531  0.4431 -0.4449  0.2263
  101MOL   H10732307   1.935   1.440   4.537 -0.9845 -1.1590  1.0915
  101MOL   H10832308   2.277   1.357   4.675  0.2476  0.4721 -0.2917
  101MOL   H10932309   2.397   1.772   4.642 -0.7541  0.6839  0.9880
  101MOL   H11032310   2.179   1.827   4.563  1.2775  0.4297 -0.3507
  101MOL   H11132311   2.014   1.672   4.525 -0.1792  3.1347  2.2056
  101MOL   H11232312   2.134   1.313   4.450  0.8867 -0.4449  0.5500
  101MOL   H11332313   2.144   1.216   4.595  2.8885 -0.8193 -2.6303
  101MOL   C11432314   1.978   1.172   4.455 -0.3888  0.6735  0.0022
  101MOL   C11532315   1.861   1.234   4.394  0.3147  0.2886 -0.4932
  101MOL   C11632316   1.878   1.341   4.307  0.3873  0.2415  0.4651
  101MOL   C11732317   1.767   1.401   4.243  0.1682 -0.2185 -0.3705
  101MOL  Cl11832318   1.791   1.538   4.141  0.1555  0.1629  0.0591
  101MOL   C11932319   1.642   1.346   4.268 -0.0399  0.3538  0.9849
  101MOL   C12032320   1.621   1.248   4.368  0.2262 -0.9531  0.0513
  101MOL   C12132321   1.731   1.188   4.425 -0.1969 -0.1331 -0.0880
  101MOL   C12232322   2.058   1.084   4.353 -0.3346 -0.3433  0.3149
  101MOL   H12332323   1.945   1.111   4.538  4.4903 -0.1616  1.4534
  101MOL   H12432324   1.975   1.386   4.293 -0.0272  0.6942 -0.9956
  101MOL   H12532325   1.562   1.383   4.206  0.6597 -1.6700 -1.2066
  101MOL   H12632326   1.521   1.213   4.390  0.0426 -0.9420 -0.7567
  101MOL   H12732327   1.708   1.104   4.489 -0.3107 -1.6237 -2.0395
  101MOL   H12832328   2.103   1.141   4.272  1.6352  0.8999  2.2176
  101MOL   H12932329   2.152   1.055   4.401 -0.0566  1.4879  0.9210
  101MOL   C13032330   1.994   0.956   4.289 -0.3907 -0.0778  0.0706
  101MOL   C13132331   1.863   0.980   4.218  0.5143  0.0164 -0.3479
  101MOL   C13232332   1.852   1.071   4.104 -0.0031  0.7899  0.1968
  101MOL   C13332333   1.733   1.089   4.033 -0.4954  0.5567  0.1084
  101MOL  Cl13432334   1.727   1.194   3.898  0.0589 -0.0827 -0.2984
  101MOL   C13532335   1.617   1.028   4.082 -0.5772  0.6800 -0.3004
  101MOL   C13632336   1.626   0.936   4.196  0.0598 -0.1929 -0.0323
  101MOL   C13732337   1.746   0.912   4.258 -0.4564  0.3262 -0.8111
  101MOL   C13832338   2.100   0.885   4.192  0.0550 -0.0676 -0.2462
  101MOL   H13932339   1.967   0.895   4.375  2.1768 -0.7061  0.4784
  101MOL   H14032340   1.941   1.118   4.064 -0.9912  1.9345 -0.6648
  101MOL   H14132341   1.525   1.036   4.026 -0.2745  1.2068 -0.7269
  101MOL   H14232342   1.538   0.883   4.232  2.3365 -1.9486  3.2060
  101MOL   H14332343   1.748   0.825   4.323 -1.6154  0.3428 -0.7444
  101MOL   H14432344   2.047   0.834   4.113  0.4787  1.9809 -1.8884
  101MOL   H14532345   2.154   0.968   4.146 -0.0753  1.3203  2.0023
  101MOL   C14632346   2.194   0.774   4.266  0.2368  0.3289 -0.6553
  101MOL   C14732347   2.116   0.684   4.365  0.6348 -0.7202  0.1863
  101MOL   C14832348   2.144   0.673   4.496  0.4047 -0.4609  0.6450
  101MOL   C14932349   2.070   0.602   4.588  0.5307 -0.3830  0.2147
  101MOL  Cl15032350   2.133   0.583   4.752  0.0994  0.1259  0.4121
  101MOL   C15132351   1.949   0.548   4.541  0.6265  0.0802  0.3212
  101MOL   C15232352   1.906   0.565   4.411 -0.4786 -0.0833 -0.2926
  101MOL   C15332353   1.997   0.622   4.318  0.3027 -0.0059  0.6599
  101MOL   C15432354   2.271   0.683   4.162 -0.1476 -0.4678 -0.0766
  101MOL   H15532355   2.271   0.827   4.323 -0.3999 -0.0698  0.5912
  101MOL   H15632356   2.236   0.725   4.520 -0.4391  1.4388 -0.1863
  101MOL   H15732357   1.881   0.502   4.611 -1.0973  1.3970 -0.4463
  101MOL   H15832358   1.814   0.531   4.366 -0.6037  1.4383 -1.1968
  101MOL   H15932359   1.966   0.634   4.215  1.3878  0.0376  0.3360
  101MOL   H16032360   2.207   0.608   4.115  3.4219 -3.0617 -1.0258
  101MOL   H16132361   2.283   0.752   4.079  0.6108  2.7463  2.6117
  101MOL   C16232362   2.404   0.619   4.211 -0.5489  0.3347  0.3997
  101MOL   C16332363   2.369   0.518   4.325 -0.3669  0.3059 -0.1162
  101MOL   C16432364   2.280   0.414   4.302  0.8043  0.6935 -0.2218
  101MOL   C16532365   2.256   0.318   4.398 -0.1909  0.2243 -0.0596
  101MOL  Cl16632366   2.134   0.196   4.369  0.0045  0.0287  0.1676
  101MOL   C16732367   2.331   0.318   4.519  0.1369 -0.0615 -0.8560
  101MOL   C16832368   2.431   0.420   4.540  0.0886 -0.4944  0.5967
  101MOL   C16932369   2.445   0.519   4.441  0.3908  0.2017  0.1116
  101MOL   C17032370   2.475   0.550   4.093  0.3709  0.7006  0.5299
  101MOL   H17132371   2.480   0.683   4.256  2.0656 -2.9322  0.8212
  101MOL   H17232372   2.216   0.428   4.216  0.6435  1.6108  0.0383
  101MOL   H17332373   2.329   0.239   4.592 -1.1711  1.6173  0.9727
  101MOL   H17432374   2.474   0.422   4.639  0.9361 -0.3671  0.2292
  101MOL   H17532375   2.517   0.597   4.463  0.3182 -0.1151  1.5750
  101MOL   H17632376   2.558   0.497   4.140  0.3409  0.0272 -0.1598
  101MOL   H17732377   2.413   0.478   4.039  2.5970 -1.5490  0.8674
  101MOL   C17832378   2.523   0.640   3.988  0.4716  0.5605 -0.7550
  101MOL   C17932379   2.610   0.756   4.047 -0.2329  0.3674  0.1520
  101MOL   C18032380   2.575   0.889   4.025  0.9491  0.2683  0.3268
  101MOL   C18132381   2.657   1.001   4.062  0.2774  0.1214  0.2448
  101MOL  Cl18232382   2.600   1.164   4.055  0.4323  0.1498 -0.3799
  101MOL   C18332383   2.782   0.959   4.122 -0.4586 -0.5192 -0.0062
  101MOL   C18432384   2.827   0.828   4.138  0.4396  0.3271 -0.2134
  101MOL   C18532385   2.737   0.723   4.104 -0.3470  0.4233  0.2554
  101MOL   C18632386   2.606   0.563   3.882  0.2418  0.2601  1.3064
  101MOL   H18732387   2.437   0.680   3.934  2.3060  1.2719 -3.2537
  101MOL   H18832388   2.478   0.916   3.986  1.9742  1.6428 -1.4010
  101MOL   H18932389   2.848   1.036   4.160 -1.4891 -0.5500  1.8918
  101MOL   H19032390   2.927   0.804   4.170  0.9754  0.8389 -1.5013
  101MOL   H19132391   2.775   0.622   4.108  1.2121  0.9981  0.6289
  101MOL   H19232392   2.707   0.541   3.917 -0.6891 -1.8949  2.7377
  101MOL   H19332393   2.559   0.465   3.882  0.4648  0.1548  1.7677
  101MOL   C19432394   2.599   0.627   3.742  0.2858  0.0148 -0.3599
  101MOL   C19532395   2.735   0.633   3.670 -0.5229  0.0539  0.6322
  101MOL   C19632396   2.816   0.746   3.682 -0.9502 -0.0712  0.3266
  101MOL   C19732397   2.940   0.747   3.613  0.5621  0.5439 -0.5686
  101MOL  Cl19832398   3.034   0.886   3.619 -0.2303  0.3936  0.2105
  101MOL   C19932399   2.992   0.641   3.541 -0.1050 -0.2819  0.6465
  101MOL   C20032400   2.912   0.524   3.531 -0.0271 -0.1708 -0.0522
  101MOL   C20132401   2.784   0.527   3.594  0.6650 -0.0539  0.3781
  101MOL   C20232402   2.481   0.573   3.660  0.1727 -0.0145 -0.5140
  101MOL   H20332403   2.586   0.733   3.765  2.3320  0.0567  0.7706
  101MOL   H20432404   2.789   0.839   3.730  0.7057  0.2316  0.6770
  101MOL   H20532405   3.087   0.652   3.491  0.1369  2.0914  1.5659
  101MOL   H20632406   2.947   0.433   3.484  0.6744 -1.7926  3.4853
  101MOL   H20732407   2.723   0.440   3.580 -1.4898  1.5053 -0.1987
  101MOL   H20832408   2.519   0.496   3.593  0.6267  1.7117 -2.2916
  101MOL   H20932409   2.422   0.525   3.737  0.9995 -3.7326 -2.0725
  101MOL   C21032410   2.396   0.674   3.573 -0.3043 -0.1577 -0.4928
  101MOL   C21132411   2.310   0.757   3.678  0.7190 -0.2712 -0.0825
  101MOL   C21232412   2.349   0.890   3.716  0.3500 -0.3394 -0.5601
  101MOL   C21332413   2.259   0.963   3.801 -1.2193 -0.7558 -0.3191
  101MOL  Cl21432414   2.301   1.121   3.854 -0.0710  0.1927 -0.3834
  101MOL   C21532415   2.132   0.913   3.829 -0.4370 -0.5988  0.1879
  101MOL   C21632416   2.090   0.784   3.790 -0.6089  0.2623 -0.0242
  101MOL   C21732417   2.181   0.705   3.716  0.2840 -0.5928 -0.1316
  101MOL   C21832418   2.475   0.750   3.459 -0.2695  0.0265  0.0421
  101MOL   H21932419   2.318   0.623   3.517 -1.4316 -0.7138  1.5671
  101MOL   H22032420   2.445   0.930   3.689  0.9341 -2.3954 -1.6486
  101MOL   H22132421   2.061   0.981   3.873  1.0875  1.1972 -0.0967
  101MOL   H22232422   1.993   0.751   3.823  0.4274 -0.1723  2.6635
  101MOL   H22332423   2.157   0.608   3.675  2.7230 -0.6052 -1.6461
  101MOL   H22432424   2.562   0.785   3.514  0.8326 -1.0784 -0.9695
  101MOL   H22532425   2.516   0.673   3.394  0.7564 -0.4240  1.2013
  101MOL   C22632426   2.404   0.859   3.383 -0.0163 -0.4417  0.4183
  101MOL   C22732427   2.501   0.949   3.307  0.2147 -0.0261 -0.4644
  101MOL   C22832428   2.553   0.919   3.177 -0.1785 -0.1676  0.3790
  101MOL   C22932429   2.644   0.997   3.108 -0.7562 -0.9874 -1.1361
  101MOL  Cl23032430   2.702   0.935   2.957  0.1568  0.2128  0.5116
  101MOL   C23132431   2.698   1.109   3.170  0.0769 -0.3977  0.6316
  101MOL   C23232432   2.651   1.145   3.295 -0.3807  0.3615  0.2157
  101MOL   C23332433   2.551   1.070   3.360 -0.2268  0.1936 -0.1766
  101MOL   C23432434   2.285   0.814   3.292  0.1310 -0.2931 -0.1804
  101MOL   H23532435   2.359   0.915   3.465 -1.3636 -0.8854 -0.0114
  101MOL   H23632436   2.515   0.830   3.128 -0.1296  0.8983 -1.6206
  101MOL   H23732437   2.771   1.165   3.113 -1.3456 -0.8495 -1.7003
  101MOL   H23832438   2.680   1.237   3.344 -0.5568  1.3587 -1.4830
  101MOL   H23932439   2.507   1.103   3.453 -0.6930 -1.1508  0.0850
  101MOL   H24032440   2.308   0.761   3.199 -1.2805  0.2097 -0.8405
  101MOL   H24132441   2.242   0.732   3.351 -1.1764  1.1219  0.8630
  101MOL   C24232442   2.170   0.925   3.268  0.0741  0.7877 -0.0267
  101MOL   C24332443   2.211   1.050   3.185  0.2527  0.4088  0.1436
  101MOL   C24432444   2.205   1.179   3.244 -0.0694  0.0768  0.8854
  101MOL   C24532445   2.238   1.291   3.161  0.2128  0.2044  0.6075
  101MOL  Cl24632446   2.216   1.444   3.230  0.1570  0.1811 -0.4789
  101MOL   C24732447   2.286   1.276   3.027  0.1878 -0.1688  0.2442
  101MOL   C24832448   2.287   1.144   2.972 -0.3474  0.2539 -0.5331
  101MOL   C24932449   2.257   1.029   3.054 -0.1371  0.9837 -0.0851
  101MOL   C25032450   2.042   0.855   3.212 -0.5249 -0.6491 -0.1459
  101MOL   H25132451   2.130   0.954   3.365  1.3642 -1.6303  1.2789
  101MOL   H25232452   2.185   1.179   3.350  0.8794 -0.7479  1.0716
  101MOL   H25332453   2.314   1.367   2.976 -0.6320 -0.3157 -0.4772
  101MOL   H25432454   2.326   1.124   2.873  1.0364  0.5353 -0.0482
  101MOL   H25532455   2.267   0.935   3.003  0.7975  1.9908 -1.7979
  101MOL   H25632456   1.982   0.934   3.166  0.7138 -0.0748 -0.7894
  101MOL   H25732457   2.062   0.800   3.120  0.0943 -0.5790 -0.0542
  101MOL   C25832458   1.951   0.766   3.304 -0.0433  0.5567 -0.2818
  101MOL   C25932459   1.898   0.831   3.427 -0.9486 -0.8953  0.2720
  101MOL   C26032460   1.872   0.972   3.432 -0.1712  0.4711 -0.5420
  101MOL   C26132461   1.812   1.031   3.541 -0.2919  0.3143 -0.6497
  101MOL  Cl26232462   1.752   1.194   3.527  0.0802  0.3015  0.0471
  101MOL   C26332463   1.765   0.947   3.643  0.4146  0.2752 -0.0217
  101MOL   C26432464   1.805   0.809   3.640 -0.3124  0.5716 -1.3826
  101MOL   C26532465   1.872   0.753   3.536  0.3982  0.2707 -0.3074
  101MOL   C26632466   1.826   0.726   3.219 -0.5137 -0.2110  0.2875
  101MOL   H26732467   2.003   0.674   3.331  1.7980  1.5754 -0.2589
  101MOL   H26832468   1.890   1.040   3.350  1.6832  1.5702  0.7513
  101MOL   H26932469   1.713   0.986   3.730  0.1930 -0.2709  0.0931
  101MOL   H27032470   1.767   0.743   3.717  2.6454 -0.6573 -0.9200
  101MOL   H27132471   1.917   0.655   3.536  1.5962  0.8129  0.7707
  101MOL   H27232472   1.765   0.669   3.289 -1.0708  0.6907  0.5578
  101MOL   H27332473   1.770   0.818   3.198  3.4252  2.0260 -0.8637
  101MOL   C27432474   1.828   0.630   3.103  0.4532  0.3417  1.2099
  101MOL   C27532475   1.905   0.498   3.138  0.8135  0.0073 -0.6063
  101MOL   C27632476   1.848   0.407   3.224 -0.6684 -0.0453  0.1539
  101MOL   C27732477   1.916   0.284   3.256 -0.9398  0.1481  0.3779
  101MOL  Cl27832478   1.834   0.158   3.352 -0.2860 -0.5899 -0.2178
  101MOL   C27932479   2.042   0.257   3.191 -0.1348  0.0947 -0.1061
  101MOL   C28032480   2.098   0.350   3.104  0.0188 -0.6876 -0.0493
  101MOL   C28132481   2.028   0.470   3.080 -0.1107  0.5426  0.5343
  101MOL   C28232482   1.679   0.608   3.067 -0.3037 -0.0016 -0.0441
  101MOL   H28332483   1.883   0.667   3.017  2.8215 -0.6824  2.2554
  101MOL   H28432484   1.749   0.420   3.267  0.3695  0.2716  2.5264
  101MOL   H28532485   2.095   0.164   3.201 -0.4564  0.0524  1.3505
  101MOL   H28632486   2.191   0.330   3.053 -0.5696 -1.8017 -0.7057
  101MOL   H28732487   2.066   0.543   3.009 -1.5901 -0.0276 -0.8727
  101MOL   H28832488   1.632   0.584   3.162  0.4470 -1.5211 -0.0274
  101MOL   H28932489   1.640   0.701   3.027  0.1787  0.1402 -0.1893
  101MOL   C29032490   1.641   0.496   2.971 -0.3709 -0.3274  0.3468
  101MOL   C29132491   1.496   0.457   2.985  0.0034  0.5759  0.2032
  101MOL   C29232492   1.393   0.559   2.974 -0.2702 -0.0277  0.7514
  101MOL   C29332493   1.257   0.523   2.988 -0.3398 -0.0580  0.5104
  101MOL  Cl29432494   1.125   0.642   2.976 -0.0229  0.1109 -0.4462
  101MOL   C29532495   1.225   0.386   3.006  0.0144  0.2030 -0.8126
  101MOL   C29632496   1.327   0.294   3.014  0.0880  0.1143  0.5134
  101MOL   C29732497   1.461   0.327   3.010 -0.1044  0.0790  0.3716
  101MOL   C29832498   1.682   0.517   2.821  0.1978 -0.2300 -0.4974
  101MOL   H29932499   1.691   0.406   3.007  2.0576 -0.4043 -3.0063
  101MOL   H30032500   1.412   0.665   2.986 -0.1608 -0.1265  1.4981
  101MOL   H30132501   1.120   0.362   3.008  0.4945 -2.1458 -1.7790
  101MOL   H30232502   1.295   0.195   3.045 -1.0569  0.8538  1.7520
  101MOL   H30332503   1.533   0.246   3.012 -0.1252  0.0169 -0.9152
  101MOL   H30432504   1.595   0.489   2.762 -0.1976 -0.6319  0.2666
  101MOL   H30532505   1.708   0.622   2.806 -1.1728  0.5328  2.0903
  101MOL   C30632506   1.799   0.428   2.772 -0.1794 -0.3025 -0.0131
  101MOL   C30732507   1.757   0.281   2.770 -0.5394 -0.2152 -0.3441
  101MOL   C30832508   1.804   0.199   2.874 -0.0116 -0.3685  0.5183
  101MOL   C30932509   1.761   0.066   2.889  0.8653  0.1930  0.2971
  101MOL  Cl31032510   1.814   8.403   3.026 -0.0413  0.1269 -0.2161
  101MOL   C31132511   1.679   0.011   2.789  0.5171  0.3891  0.0943
  101MOL   C31232512   1.627   0.097   2.687 -0.1796  0.0744 -0.1188
  101MOL   C31332513   1.675   0.229   2.672 -0.2925 -0.0324  0.1823
  101MOL   C31432514   1.867   0.478   2.642 -0.2134 -0.3724  0.2904
  101MOL   H31532515   1.878   0.438   2.848  0.1164 -0.3124 -0.3176
  101MOL   H31632516   1.864   0.254   2.946  2.1837 -0.0295 -1.5212
  101MOL   H31732517   1.640   8.346   2.780  0.0330  0.7277 -2.0224
  101MOL   H31832518   1.554   0.060   2.617  2.1627  0.6845 -2.9895
  101MOL   H31932519   1.632   0.286   2.590 -1.1611  0.5280  1.0213
  101MOL   H32032520   1.944   0.403   2.623  0.6450  0.3460  0.8798
  101MOL   H32132521   1.809   0.480   2.550 -0.1799  0.1530  0.2776
  101MOL   H32232522   1.909   0.577   2.661 -1.4898 -0.0340  1.4188
  102MOL     C132523   1.226   6.082   7.648  0.0277  0.0885 -0.4081
  102MOL     C232524   1.272   6.180   7.749  0.0356  0.1821  0.1037
  102MOL     C332525   1.260   6.319   7.730 -0.1948  0.1925  0.5191
  102MOL     C432526   1.313   6.408   7.835 -0.1205  0.6359 -0.0214
  102MOL    Cl532527   1.303   6.574   7.816  0.0234 -0.4478  0.2129
  102MOL     C632528   1.360   6.355   7.956  0.5481 -0.2465  0.5890
  102MOL     C732529   1.369   6.218   7.974 -0.2412 -0.1378  0.1528
  102MOL     C832530   1.333   6.132   7.867 -0.9277  0.1375 -0.4154
  102MOL     C932531   1.326   6.029   7.550 -0.6500  0.3846 -0.1927
  102MOL    H1032532   1.143   6.123   7.590 -0.6597 -2.0178 -0.9630
  102MOL    H1132533   1.220   6.363   7.639 -0.4924 -2.3544 -0.6303
  102MOL    H1232534   1.373   6.424   8.039 -0.1705 -0.1924  0.6546
  102MOL    H1332535   1.386   6.178   8.073  1.5952 -1.6968 -0.7453
  102MOL    H1432536   1.338   6.026   7.887 -3.5867  0.5170  2.5996
  102MOL    H1532537   1.368   6.119   7.505 -0.1766  1.4336  2.2954
  102MOL    H1632538   1.403   5.978   7.608 -0.5980  0.4722 -0.1848
  102MOL    H1732539   1.174   5.997   7.692  0.6946 -1.3620 -2.3444
  102MOL    C1832540   1.282   5.937   7.430 -0.7366 -0.1141  0.2915
  102MOL    C1932541   1.269   5.794   7.468 -0.6608 -0.7603 -0.5098
  102MOL    C2032542   1.161   5.752   7.540 -0.5196 -0.1513 -0.0921
  102MOL    C2132543   1.156   5.619   7.576  0.2597  0.8153 -0.2903
  102MOL   Cl2232544   1.010   5.564   7.647 -0.3384  0.1467  0.2481
  102MOL    C2332545   1.259   5.528   7.549  0.4197  0.0275 -0.7116
  102MOL    C2432546   1.365   5.575   7.479  0.3676  0.3541  0.8451
  102MOL    C2532547   1.372   5.705   7.431  0.4254  0.5863  0.1369
  102MOL    C2632548   1.155   5.995   7.354  0.5362 -0.2089 -0.6436
  102MOL    H2732549   1.371   5.955   7.370 -0.2563 -0.6921  0.8325
  102MOL    H2832550   1.083   5.822   7.564  0.7547  1.9657 -1.9400
  102MOL    H2932551   1.256   5.425   7.583  0.7392  0.3394  0.2691
  102MOL    H3032552   1.438   5.498   7.458 -1.6308 -1.2367 -0.4441
  102MOL    H3132553   1.461   5.745   7.384  0.1037  1.5849  0.3542
  102MOL    H3232554   1.122   5.911   7.293 -0.0058  0.6372 -1.5323
  102MOL    H3332555   1.071   6.008   7.422  0.7705 -0.2383 -0.3471
  102MOL    C3432556   1.174   6.112   7.254 -0.3799  0.2247 -0.4491
  102MOL    C3532557   1.098   6.092   7.124  0.4511  0.5152  0.1730
  102MOL    C3632558   0.954   6.089   7.130  0.2173  0.4134 -0.4266
  102MOL    C3732559   0.871   6.093   7.023  0.1698  0.1345  0.5588
  102MOL   Cl3832560   0.700   6.093   7.060 -0.0400 -0.4327 -0.0395
  102MOL    C3932561   0.918   6.087   6.891 -0.0532 -0.0784 -0.1053
  102MOL    C4032562   1.060   6.085   6.877  0.4090 -0.8307  0.2774
  102MOL    C4132563   1.147   6.094   6.993  0.8791 -0.2497 -0.4576
  102MOL    C4232564   1.142   6.249   7.321  0.0968 -0.3693  0.1372
  102MOL    H4332565   1.278   6.105   7.223 -0.5556  0.9645 -1.2288
  102MOL    H4432566   0.895   6.089   7.220 -0.3200  1.9650 -0.7735
  102MOL    H4532567   0.856   6.072   6.804  0.8927 -1.3797 -0.5618
  102MOL    H4632568   1.107   6.091   6.780  0.1054  2.1952  0.2648
  102MOL    H4732569   1.253   6.092   6.975  1.0152 -0.4430  0.3453
  102MOL    H4832570   1.061   6.235   7.392  0.8945  2.5123  1.6863
  102MOL    H4932571   1.234   6.261   7.377  0.7454 -2.4121 -0.4564
  102MOL    C5032572   1.129   6.377   7.236  0.5849 -0.1147 -0.1498
  102MOL    C5132573   1.114   6.496   7.327  0.8475 -0.8291 -0.4639
  102MOL    C5232574   0.997   6.572   7.320 -0.6391 -0.0143  0.0350
  102MOL    C5332575   0.985   6.685   7.403 -0.8222  0.4517  0.4470
  102MOL   Cl5432576   0.840   6.777   7.419  0.3157 -0.6497 -0.0102
  102MOL    C5532577   1.102   6.729   7.479  0.3100  0.4041  0.9833
  102MOL    C5632578   1.216   6.647   7.488  0.5151  1.1971 -0.1428
  102MOL    C5732579   1.227   6.533   7.407 -0.2918  0.4798  0.2512
  102MOL    C5832580   1.260   6.398   7.146  0.1071 -0.4126 -0.3036
  102MOL    H5932581   1.050   6.358   7.163  1.4188 -0.9662 -0.8367
  102MOL    H6032582   0.911   6.550   7.258 -1.6884 -1.1371  1.8315
  102MOL    H6132583   1.089   6.821   7.535  1.6678  0.1354  1.7556
  102MOL    H6232584   1.297   6.671   7.555  0.4382  0.2913  0.2774
  102MOL    H6332585   1.312   6.469   7.424  0.8384  2.1594  1.0180
  102MOL    H6432586   1.344   6.403   7.214 -1.3115  1.5102  1.3691
  102MOL    H6532587   1.285   6.308   7.090  2.8121 -1.9528  3.2307
  102MOL    C6632588   1.259   6.522   7.051 -0.3962  0.0829 -0.2608
  102MOL    C6732589   1.405   6.554   7.010 -0.6419 -0.3519 -0.0405
  102MOL    C6832590   1.486   6.454   6.954  0.0910 -0.0063  0.6964
  102MOL    C6932591   1.620   6.480   6.930  0.4278 -0.1218  0.1776
  102MOL   Cl7032592   1.726   6.360   6.870  0.0234  0.0191  0.3489
  102MOL    C7132593   1.673   6.608   6.964  0.0664  0.4114 -0.2997
  102MOL    C7232594   1.597   6.712   7.020 -0.4003  0.7415 -0.1997
  102MOL    C7332595   1.456   6.682   7.043 -0.0347 -0.0557 -0.4301
  102MOL    C7432596   1.169   6.521   6.935 -0.7683  0.1584  0.9361
  102MOL    H7532597   1.228   6.605   7.114  1.2875 -0.5602  1.4799
  102MOL    H7632598   1.452   6.356   6.922  0.6058  0.9199 -2.9523
  102MOL    H7732599   1.778   6.619   6.941 -0.2086 -0.4549 -2.0458
  102MOL    H7832600   1.646   6.804   7.047  0.6612  0.1107  0.0615
  102MOL    H7932601   1.392   6.758   7.085 -0.2642 -0.1042 -0.6898
  102MOL    H8032602   1.197   6.445   6.862 -0.1044 -0.7911  2.1594
  102MOL    H8132603   1.074   6.478   6.965  0.0362 -2.7776 -0.4962
  102MOL    C8232604   1.143   6.659   6.871 -0.7908  0.2520  0.4330
  102MOL    C8332605   1.110   6.647   6.726 -0.1795 -0.0552 -0.0771
  102MOL    C8432606   0.986   6.590   6.677 -1.7625 -0.0153  0.1843
  102MOL    C8532607   0.949   6.598   6.540  1.1121 -0.1789  0.4042
  102MOL   Cl8632608   0.805   6.525   6.484 -0.2932 -0.3227 -0.1902
  102MOL    C8732609   1.040   6.656   6.448  0.3667 -0.7402 -0.7406
  102MOL    C8832610   1.169   6.700   6.492  0.1243  0.3980  0.0615
  102MOL    C8932611   1.199   6.699   6.629  0.2324  0.4915 -0.0249
  102MOL    C9032612   1.042   6.739   6.955 -0.6293 -0.3175 -0.2083
  102MOL    H9132613   1.235   6.717   6.875 -0.7234  0.1990 -0.2581
  102MOL    H9232614   0.911   6.540   6.737 -1.3849 -1.5518 -0.5801
  102MOL    H9332615   1.024   6.667   6.342  1.1454 -0.1806 -0.8113
  102MOL    H9432616   1.241   6.736   6.421 -0.1100  0.5131 -0.1187
  102MOL    H9532617   1.286   6.753   6.665  0.7596 -0.2591 -0.1768
  102MOL    H9632618   0.963   6.668   6.980 -1.1223  0.0943 -0.5978
  102MOL    H9732619   1.082   6.763   7.054  0.6424 -4.4696  0.3635
  102MOL    C9832620   0.989   6.869   6.892  0.0342 -0.8675 -0.2169
  102MOL    C9932621   0.886   6.932   6.974  0.1862 -0.5478  0.5325
  102MOL   C10032622   0.909   7.006   7.091 -0.3206  1.5401  0.8627
  102MOL   C10132623   0.806   7.042   7.172  0.6858  0.4369  0.1486
  102MOL  Cl10232624   0.850   7.124   7.319  0.1625  0.1895  0.4844
  102MOL   C10332625   0.674   7.015   7.148  0.1394 -0.1480 -0.5817
  102MOL   C10432626   0.638   6.955   7.026 -0.4758 -0.3561  0.1554
  102MOL   C10532627   0.746   6.919   6.936 -0.1159 -0.0739  0.3970
  102MOL   C10632628   1.098   6.972   6.848 -0.1876 -0.1742 -0.0540
  102MOL   H10732629   0.943   6.831   6.802 -1.0018 -1.2242  0.4580
  102MOL   H10832630   1.007   7.029   7.130  0.9654 -0.9262 -0.8031
  102MOL   H10932631   0.609   7.046   7.228 -1.0730 -1.4159 -1.0461
  102MOL   H11032632   0.535   6.931   7.004 -0.5538 -0.6866  0.8638
  102MOL   H11132633   0.726   6.865   6.845  1.4240  0.4622 -0.2834
  102MOL   H11232634   1.150   7.012   6.935  0.1505 -2.0367  0.6222
  102MOL   H11332635   1.175   6.914   6.797  1.8351  0.8474  1.7908
  102MOL   C11432636   1.044   7.082   6.755  0.3548  0.2034  0.1857
  102MOL   C11532637   1.143   7.197   6.760  0.6788  0.3934  0.4710
  102MOL   C11632638   1.278   7.181   6.717  0.3643 -0.1090 -0.5055
  102MOL   C11732639   1.371   7.286   6.733 -0.6058 -0.1998 -0.3715
  102MOL  Cl11832640   1.537   7.283   6.673  0.0026 -0.3064  0.3315
  102MOL   C11932641   1.330   7.403   6.799 -0.0772  0.1418 -0.1520
  102MOL   C12032642   1.204   7.419   6.849 -0.3528  0.4124  0.6510
  102MOL   C12132643   1.115   7.320   6.827 -0.3519 -0.6521 -0.0196
  102MOL   C12232644   1.007   7.034   6.608  0.0651  0.0788 -0.2338
  102MOL   H12332645   0.956   7.117   6.809 -0.8812 -3.2442  0.5361
  102MOL   H12432646   1.310   7.095   6.660 -2.0035 -1.3098 -0.0842
  102MOL   H12532647   1.399   7.486   6.809 -0.4734  0.3701  0.7208
  102MOL   H12632648   1.174   7.507   6.903 -1.1632  0.5121  0.0615
  102MOL   H12732649   1.016   7.332   6.869 -0.7731 -2.0316 -0.5914
  102MOL   H12832650   1.099   7.025   6.550  1.1060 -2.5599  1.7505
  102MOL   H12932651   0.958   6.937   6.608 -3.0729  1.6128  0.0613
  102MOL   C13032652   0.916   7.130   6.538 -0.4693 -0.0511 -0.4724
  102MOL   C13132653   0.872   7.066   6.404 -0.1961 -0.1106 -0.1457
  102MOL   C13232654   0.921   7.109   6.273  0.4738 -0.3425 -0.6926
  102MOL   C13332655   0.896   7.031   6.158 -0.0624 -0.3112 -0.1112
  102MOL  Cl13432656   0.969   7.083   6.015  0.1775 -0.1295  0.0994
  102MOL   C13532657   0.821   6.915   6.161 -0.8983  0.1851  0.0965
  102MOL   C13632658   0.767   6.876   6.290 -0.2679 -0.3731  0.7133
  102MOL   C13732659   0.793   6.951   6.406 -0.3220 -0.7370  0.5925
  102MOL   C13832660   0.789   7.180   6.619 -0.0241 -0.2310  0.7746
  102MOL   H13932661   0.969   7.222   6.511 -2.8305  1.3022 -0.6874
  102MOL   H14032662   0.990   7.192   6.266 -1.2709  1.2202  0.2370
  102MOL   H14132663   0.787   6.859   6.075 -1.3348  0.1871  0.2675
  102MOL   H14232664   0.719   6.780   6.300 -0.2167 -0.4560  0.1932
  102MOL   H14332665   0.759   6.911   6.500 -2.8248  1.6588  0.7589
  102MOL   H14432666   0.738   7.099   6.671 -0.2132 -0.3255  0.4432
  102MOL   H14532667   0.819   7.250   6.697  1.8607 -0.3671  0.1941
  102MOL   C14632668   0.686   7.266   6.538 -0.3419  1.1438  0.6419
  102MOL   C14732669   0.558   7.184   6.525  0.3404  0.7968  0.1530
  102MOL   C14832670   0.524   7.115   6.407 -0.3297 -0.5523  0.2006
  102MOL   C14932671   0.409   7.037   6.385 -0.0639 -0.4869 -0.7302
  102MOL  Cl15032672   0.372   6.967   6.229  0.1724 -0.2780 -0.1719
  102MOL   C15132673   0.327   7.007   6.493 -0.0348  0.3532 -0.7044
  102MOL   C15232674   0.352   7.071   6.616  0.4452 -0.1340  0.2291
  102MOL   C15332675   0.462   7.167   6.631 -0.3700  0.1425 -0.3147
  102MOL   C15432676   0.669   7.414   6.581  0.2009  0.1906  0.0216
  102MOL   H15532677   0.721   7.271   6.435  2.6868 -1.4140  1.4831
  102MOL   H15632678   0.585   7.125   6.319 -1.2453  2.3320 -0.1594
  102MOL   H15732679   0.243   6.942   6.474  0.3392 -0.0428 -1.0241
  102MOL   H15832680   0.274   7.059   6.689 -0.2277 -1.2378 -0.6386
  102MOL   H15932681   0.469   7.233   6.716 -0.2236  0.8284 -0.8523
  102MOL   H16032682   0.643   7.409   6.687  2.9796 -0.7810  0.7168
  102MOL   H16132683   0.764   7.463   6.561  0.4598 -0.2102  0.2602
  102MOL   C16232684   0.559   7.491   6.496  0.0817  0.0175 -0.5651
  102MOL   C16332685   0.467   7.563   6.592  0.5552 -0.2099  0.8957
  102MOL   C16432686   0.339   7.512   6.628  1.2468 -0.2589 -0.2880
  102MOL   C16532687   0.256   7.582   6.715 -0.2337  0.1319 -0.0115
  102MOL  Cl16632688   0.103   7.513   6.748  0.6943  0.2526 -0.0521
  102MOL   C16732689   0.292   7.706   6.775  0.3325  0.8001 -0.8888
  102MOL   C16832690   0.423   7.757   6.749 -0.1737 -0.1723  0.2589
  102MOL   C16932691   0.505   7.689   6.656 -0.3385  0.9147 -0.7564
  102MOL   C17032692   0.629   7.582   6.395  0.3981  0.0182  0.4187
  102MOL   H17132693   0.491   7.422   6.446  2.0161 -1.1314 -1.6816
  102MOL   H17232694   0.309   7.413   6.598 -0.1388  0.2942 -0.8069
  102MOL   H17332695   0.227   7.758   6.843  0.2598  2.5829 -2.2958
  102MOL   H17432696   0.458   7.847   6.797  0.4915  1.7624 -3.6308
  102MOL   H17532697   0.596   7.735   6.619  1.7903 -1.1735  1.5989
  102MOL   H17632698   0.564   7.665   6.367  1.6284  1.2319  1.0964
  102MOL   H17732699   0.706   7.634   6.454 -2.4433  3.1523  1.5323
  102MOL   C17832700   0.692   7.514   6.270 -0.4827 -0.0196  0.6104
  102MOL   C17932701   0.590   7.440   6.177 -0.1113  0.1203 -0.6978
  102MOL   C18032702   0.618   7.316   6.116  0.2824  0.2344 -0.0243
  102MOL   C18132703   0.520   7.257   6.031 -0.2211  0.3317 -0.5697
  102MOL  Cl18232704   0.562   7.107   5.962  0.0858 -0.0657 -0.0104
  102MOL   C18332705   0.406   7.328   5.992  0.0313 -1.0022 -0.7254
  102MOL   C18432706   0.381   7.453   6.057  0.0627  0.4294 -0.4638
  102MOL   C18532707   0.476   7.512   6.142  0.6561  0.0855  0.1838
  102MOL   C18632708   0.773   7.609   6.176  0.4981  0.4062  0.0916
  102MOL   H18732709   0.763   7.439   6.306 -0.1391 -0.0103 -0.0550
  102MOL   H18832710   0.712   7.266   6.139 -0.0467  0.3519  1.5930
  102MOL   H18932711   0.335   7.287   5.922  0.4777 -3.4731  0.2356
  102MOL   H19032712   0.288   7.504   6.036 -0.0417  0.1074 -0.7874
  102MOL   H19132713   0.468   7.614   6.176  0.6806  0.2075 -0.1741
  102MOL   H19232714   0.792   7.556   6.083 -1.4658 -0.7409  0.3132
  102MOL   H19332715   0.709   7.696   6.160 -1.7267 -0.6444  2.8022
  102MOL   C19432716   0.904   7.673   6.226  0.2718 -0.5401 -0.3860
  102MOL   C19532717   0.997   7.568   6.290 -0.5300 -0.4324 -0.8476
  102MOL   C19632718   1.052   7.467   6.212 -0.0563 -0.3342 -0.4652
  102MOL   C19732719   1.153   7.385   6.260 -0.1551 -0.0018  0.1508
  102MOL  Cl19832720   1.235   7.283   6.154  0.2601 -0.2390  0.0178
  102MOL   C19932721   1.176   7.379   6.400 -0.1043  0.4158  0.2903
  102MOL   C20032722   1.104   7.468   6.485  0.0556  0.2014  0.2736
  102MOL   C20132723   1.017   7.568   6.433  0.0646  0.1308  0.8145
  102MOL   C20232724   0.976   7.768   6.125 -0.4064  0.1291  0.2820
  102MOL   H20332725   0.858   7.732   6.305 -0.7187 -2.2951  0.3617
  102MOL   H20432726   1.033   7.461   6.105  2.8861 -0.8067 -0.9940
  102MOL   H20532727   1.247   7.304   6.431  2.0416  2.1356 -0.2770
  102MOL   H20632728   1.120   7.460   6.592 -0.7039  0.6936  0.4224
  102MOL   H20732729   0.970   7.638   6.500  2.3099  1.3224  1.2057
  102MOL   H20832730   1.029   7.703   6.055  1.6040  1.2790  0.7012
  102MOL   H20932731   0.907   7.834   6.072 -0.1313  1.1327  1.1735
  102MOL   C21032732   1.086   7.857   6.190 -0.6469 -0.6273 -0.5629
  102MOL   C21132733   1.147   7.948   6.084  0.1944  0.4689 -0.7691
  102MOL   C21232734   1.281   7.944   6.058  0.4011  0.1126  0.3023
  102MOL   C21332735   1.346   8.040   5.974  0.0576 -0.7391 -0.3033
  102MOL  Cl21432736   1.514   8.028   5.951  0.2008  0.4046  0.0256
  102MOL   C21532737   1.267   8.143   5.916 -0.8364  0.0900 -0.0293
  102MOL   C21632738   1.132   8.136   5.917 -0.1651  0.0899  0.8817
  102MOL   C21732739   1.072   8.043   6.012  0.7112  0.1322 -0.5962
  102MOL   C21832740   1.025   7.941   6.305  0.4436 -0.2491  0.0222
  102MOL   H21932741   1.163   7.793   6.233 -0.8777  0.7397  1.9574
  102MOL   H22032742   1.340   7.873   6.114 -1.8092 -2.3018 -0.3068
  102MOL   H22132743   1.315   8.218   5.854 -2.8844  0.3684 -1.3398
  102MOL   H22232744   1.070   8.211   5.871 -0.9621 -0.3686  1.1939
  102MOL   H22332745   0.965   8.054   6.020  0.6575 -0.7832  0.0688
  102MOL   H22432746   0.942   8.002   6.268  0.3382  0.7521  1.8659
  102MOL   H22532747   0.982   7.882   6.386  0.4516  0.9785  0.9383
  102MOL   C22632748   1.121   8.026   6.396 -0.1414  0.3995  0.1420
  102MOL   C22732749   1.262   7.973   6.412  0.9498 -0.0377 -0.3084
  102MOL   C22832750   1.281   7.867   6.496  0.5334 -0.3914 -1.4847
  102MOL   C22932751   1.407   7.807   6.504 -0.2894 -0.8148 -0.1735
  102MOL  Cl23032752   1.424   7.673   6.613 -0.1019  0.1990  0.1743
  102MOL   C23132753   1.517   7.859   6.436 -0.1527  0.8593  0.3673
  102MOL   C23232754   1.499   7.978   6.359 -0.5267 -0.1873  0.3982
  102MOL   C23332755   1.372   8.031   6.347  0.5120 -0.5715  0.5462
  102MOL   C23432756   1.111   8.180   6.382 -0.3522 -0.5013 -0.3743
  102MOL   H23532757   1.084   8.005   6.496  0.3170 -1.5246 -0.0714
  102MOL   H23632758   1.199   7.820   6.549 -1.8275  1.5171 -3.3163
  102MOL   H23732759   1.615   7.820   6.459 -0.8865 -0.1928  1.8073
  102MOL   H23832760   1.586   8.022   6.313  0.4589 -2.0746  0.3974
  102MOL   H23932761   1.354   8.108   6.274  1.1940 -0.8878  0.0401
  102MOL   H24032762   1.176   8.224   6.458  0.6590 -2.0635 -0.3033
  102MOL   H24132763   1.148   8.228   6.292 -1.2481  0.5966 -0.1725
  102MOL   C24232764   0.965   8.237   6.400 -0.3729  0.0317  0.3181
  102MOL   C24332765   0.939   8.340   6.514 -0.5512  0.1078 -0.2275
  102MOL   C24432766   1.022   0.019   6.521  0.5048 -0.2536  0.0783
  102MOL   C24532767   0.992   0.124   6.616 -0.1500 -0.3140 -0.4059
  102MOL  Cl24632768   1.099   0.256   6.622  0.0361 -0.1056 -0.0017
  102MOL   C24732769   0.886   0.110   6.708  0.1852  0.0311 -0.4180
  102MOL   C24832770   0.797   8.434   6.700 -0.6403 -0.1172 -0.2135
  102MOL   C24932771   0.821   8.335   6.598  0.1084 -0.1633  0.2534
  102MOL   C25032772   0.918   8.290   6.254  0.3400 -0.0693 -0.0839
  102MOL   H25132773   0.893   8.160   6.429 -0.7778  0.4922  0.5458
  102MOL   H25232774   1.109   0.026   6.457  0.8450 -0.6815  0.4935
  102MOL   H25332775   0.872   0.183   6.786  0.5808  0.7856 -1.0489
  102MOL   H25432776   0.725   8.424   6.779  0.0007  2.8392  0.7979
  102MOL   H25532777   0.755   8.250   6.608 -1.8652  1.2394 -0.6623
  102MOL   H25632778   0.989   8.370   6.235  1.1106 -1.3415 -2.8934
  102MOL   H25732779   0.946   8.215   6.180 -0.0352  0.6496 -0.9600
  102MOL   C25832780   0.775   8.332   6.223  0.5543 -0.1838  0.7678
  102MOL   C25932781   0.780   8.423   6.098 -0.4062 -0.2989 -0.4057
  102MOL   C26032782   0.844   8.389   5.975 -0.4306  0.7145 -0.2399
  102MOL   C26132783   0.854   0.048   5.872  0.2066  0.8868 -0.3934
  102MOL  Cl26232784   0.926   8.432   5.718 -0.0241 -0.1581  0.0288
  102MOL   C26332785   0.809   0.176   5.885 -0.5123 -0.1308 -0.1867
  102MOL   C26432786   0.738   0.210   6.001 -0.0290  0.1120  1.2041
  102MOL   C26532787   0.734   0.120   6.108  0.1697 -0.0527 -0.2205
  102MOL   C26632788   0.679   8.214   6.209  0.4039 -0.1592  0.0318
  102MOL   H26732789   0.751   8.403   6.303 -0.4490 -0.4267  0.6914
  102MOL   H26832790   0.884   8.292   5.953 -0.7319  0.4996  0.1521
  102MOL   H26932791   0.816   0.243   5.800 -0.0317  1.4530  1.0832
  102MOL   H27032792   0.695   0.308   6.009  0.3148  0.3101  0.6703
  102MOL   H27132793   0.691   0.154   6.202  1.4654 -0.4256  0.5219
  102MOL   H27232794   0.643   8.196   6.109 -1.3007  2.6091  0.1000
  102MOL   H27332795   0.726   8.119   6.233  0.1971  0.0649  1.4162
  102MOL   C27432796   0.551   8.238   6.300  0.8414  0.2499  0.3693
  102MOL   C27532797   0.495   8.379   6.297 -0.3777  0.4665 -0.6967
  102MOL   C27632798   0.510   0.036   6.405  0.2904  0.1099  0.6386
  102MOL   C27732799   0.463   0.167   6.397  0.4842  0.5579  0.4359
  102MOL  Cl27832800   0.479   0.283   6.524  0.0302 -0.1035 -0.1889
  102MOL   C27932801   0.403   0.205   6.276 -0.8968 -0.0571  0.1263
  102MOL   C28032802   0.382   0.117   6.171 -0.0025  0.8341  0.1376
  102MOL   C28132803   0.419   8.419   6.185 -0.3547 -0.0349  0.5546
  102MOL   C28232804   0.452   8.122   6.258  0.0725 -0.2887 -0.1862
  102MOL   H28332805   0.585   8.214   6.401  0.5232 -0.9901  0.1961
  102MOL   H28432806   0.568   0.006   6.491  0.4022 -2.2653 -0.2458
  102MOL   H28532807   0.371   0.307   6.261 -0.9625 -0.2191 -0.9022
  102MOL   H28632808   0.339   0.147   6.076 -1.6443 -1.6895  0.0458
  102MOL   H28732809   0.392   8.347   6.109 -0.3663  1.1207 -0.5410
  102MOL   H28832810   0.434   8.134   6.151  1.0811 -2.8526 -0.6702
  102MOL   H28932811   0.496   8.023   6.271  0.2122 -0.0770  1.0062
  102MOL   C29032812   0.314   8.110   6.337 -0.5691 -0.5622  0.3017
  102MOL   C29132813   0.260   7.968   6.296  0.1063 -0.3378 -0.5403
  102MOL   C29232814   0.196   7.957   6.170 -0.2181  0.4199  0.0529
  102MOL   C29332815   0.141   7.833   6.136 -0.1677 -0.0368  0.0144
  102MOL  Cl29432816   0.052   7.822   5.989 -0.5449 -0.1633  0.1475
  102MOL   C29532817   0.150   7.719   6.213  0.2987 -0.2590  0.6654
  102MOL   C29632818   0.235   7.729   6.325  0.0405  0.2895  0.8197
  102MOL   C29732819   0.286   7.854   6.369 -0.6034 -0.2492 -0.2621
  102MOL   C29832820   0.329   8.142   6.491  0.1013  0.4889 -0.8013
  102MOL   H29932821   0.240   8.180   6.300  0.5489  0.3030 -0.3451
  102MOL   H30032822   0.192   8.043   6.104  1.2196 -0.5634 -1.3390
  102MOL   H30132823   0.115   7.623   6.180  1.0275  0.0792 -1.1531
  102MOL   H30232824   0.249   7.637   6.378  1.3934 -0.4992 -0.8531
  102MOL   H30332825   0.350   7.859   6.455  1.0364 -4.1825 -1.1092
  102MOL   H30432826   0.401   8.073   6.534 -1.6672 -0.3231  0.9596
  102MOL   H30532827   0.364   8.245   6.488 -1.6792  1.1501  0.3738
  102MOL   C30632828   0.201   8.133   6.573 -0.0315 -0.3378 -0.1801
  102MOL   C30732829   0.240   8.144   6.713  0.8102  0.5012  0.4647
  102MOL   C30832830   0.341   8.228   6.755  0.2295  0.1464 -0.3707
  102MOL   C30932831   0.386   8.214   6.886  0.4485 -0.0715 -0.0314
  102MOL  Cl31032832   0.513   8.321   6.943 -0.1619 -0.1127  0.1609
  102MOL   C31132833   0.349   8.114   6.976 -0.1077  0.4636 -0.0252
  102MOL   C31232834   0.249   8.026   6.933 -0.3373 -0.4011  0.0315
  102MOL   C31332835   0.200   8.039   6.801  0.3909 -0.4629  0.0383
  102MOL   C31432836   0.092   8.238   6.536  0.0573 -0.1813 -0.1052
  102MOL   H31532837   0.144   8.041   6.563 -1.8772  0.7159  0.3406
  102MOL   H31632838   0.380   8.308   6.693 -1.7359 -0.3648 -2.2809
  102MOL   H31732839   0.393   8.106   7.074  2.7222  1.3709 -1.1739
  102MOL   H31832840   0.209   7.943   6.989 -0.5336  0.2200  0.8328
  102MOL   H31932841   0.138   7.964   6.753 -1.3096  0.9307  0.0378
  102MOL   H32032842   0.122   8.341   6.557  1.9064 -0.9126  0.9870
  102MOL   H32132843   0.081   8.233   6.428 -3.7518  0.3589  0.1756
  102MOL   H32232844   8.432   8.222   6.586 -0.3047 -3.7753 -1.7658
  103MOL     C132845   7.125   3.219   0.694 -0.4555  0.1888  0.6022
  103MOL     C232846   7.107   3.368   0.669  0.4035  0.2675  0.2618
  103MOL     C332847   6.998   3.413   0.595  0.1096 -0.0661  0.5236
  103MOL     C432848   6.963   3.546   0.598  0.4939 -0.0327 -0.1540
  103MOL    Cl532849   6.815   3.598   0.541  0.1266  0.1728 -0.0733
  103MOL     C632850   7.040   3.639   0.676  0.6540 -0.3919 -0.1348
  103MOL     C732851   7.151   3.593   0.745  0.2554  0.4912 -0.6983
  103MOL     C832852   7.185   3.460   0.740 -0.2888 -0.2383  0.3864
  103MOL     C932853   7.231   3.150   0.607  0.0296 -0.4205 -0.3633
  103MOL    H1032854   7.026   3.176   0.677 -0.7718  0.6501  1.2853
  103MOL    H1132855   6.939   3.336   0.547  2.8172 -3.9234  3.0795
  103MOL    H1232856   7.003   3.740   0.679  0.4945 -0.4866  2.9103
  103MOL    H1332857   7.213   3.660   0.802 -0.4243 -0.5303  1.2768
  103MOL    H1432858   7.273   3.428   0.793 -0.3697  0.8697  1.2045
  103MOL    H1532859   7.215   3.180   0.503 -1.7049 -2.1583 -0.6196
  103MOL    H1632860   7.330   3.190   0.632  0.3012 -1.8911  1.0006
  103MOL    H1732861   7.159   3.206   0.797  0.7459  1.9042  0.4412
  103MOL    C1832862   7.219   2.998   0.615 -0.3094  0.1730  0.0166
  103MOL    C1932863   7.094   2.946   0.549 -0.1728  0.2216 -0.3144
  103MOL    C2032864   7.073   2.959   0.408 -0.2227 -0.2158  0.0877
  103MOL    C2132865   6.953   2.914   0.352  0.0791 -0.5342  0.0060
  103MOL   Cl2232866   6.923   2.945   0.182  0.2190 -0.3611 -0.0961
  103MOL    C2332867   6.853   2.854   0.432 -0.7194 -0.2303  0.3031
  103MOL    C2432868   6.871   2.836   0.572  0.1570 -0.5054 -0.9495
  103MOL    C2532869   6.990   2.890   0.632  0.4836  0.2172 -0.3861
  103MOL    C2632870   7.346   2.935   0.543  0.1142  0.0153  0.4416
  103MOL    H2732871   7.224   2.961   0.717 -1.5073 -0.7121 -0.2443
  103MOL    H2832872   7.135   3.020   0.344 -1.9838  1.0941 -0.4075
  103MOL    H2932873   6.760   2.819   0.391 -0.4381 -1.0073  0.3152
  103MOL    H3032874   6.789   2.797   0.631 -1.2643  1.3738 -1.6274
  103MOL    H3132875   6.998   2.910   0.737  0.5368 -0.6820 -0.2155
  103MOL    H3232876   7.333   2.952   0.436 -3.2144  1.6583  1.0371
  103MOL    H3332877   7.428   3.000   0.574 -1.3423  0.0018  4.5669
  103MOL    C3432878   7.388   2.786   0.573 -0.7856  0.1097  0.2250
  103MOL    C3532879   7.292   2.695   0.498  0.5899 -0.0923 -0.2800
  103MOL    C3632880   7.217   2.597   0.568  0.4217  0.3317  0.5577
  103MOL    C3732881   7.121   2.518   0.501 -0.5636 -0.2035 -0.7228
  103MOL   Cl3832882   7.017   2.409   0.587  0.2279  0.1384  0.5399
  103MOL    C3932883   7.104   2.534   0.362  0.4000 -0.6310 -0.3902
  103MOL    C4032884   7.184   2.619   0.286 -0.5133 -0.1162  0.7158
  103MOL    C4132885   7.270   2.702   0.358  0.1088  0.5613  1.0656
  103MOL    C4232886   7.536   2.759   0.530  0.0151 -0.7034  0.0308
  103MOL    H4332887   7.380   2.768   0.681  1.7022  1.3982  0.6442
  103MOL    H4432888   7.224   2.585   0.675 -1.1631  1.6481  0.8224
  103MOL    H4532889   7.036   2.471   0.307  0.0786 -1.7932  1.3115
  103MOL    H4632890   7.163   2.616   0.180  0.5694 -1.0741  0.5242
  103MOL    H4732891   7.293   2.786   0.294 -2.0369 -0.2668 -0.8951
  103MOL    H4832892   7.538   2.810   0.434 -1.0606 -1.2072 -0.2706
  103MOL    H4932893   7.611   2.806   0.594  1.3945 -1.6722 -0.8332
  103MOL    C5032894   7.581   2.612   0.508  0.6029 -0.1410  0.0950
  103MOL    C5132895   7.700   2.598   0.406 -0.0630 -0.6146  0.7196
  103MOL    C5232896   7.829   2.633   0.447 -0.1803 -0.4514 -0.3942
  103MOL    C5332897   7.936   2.625   0.354  0.0000  0.4226 -0.9478
  103MOL   Cl5432898   8.085   2.676   0.402 -0.1007  0.6960 -0.1086
  103MOL    C5532899   7.913   2.571   0.225  0.3738  1.2495  0.4007
  103MOL    C5632900   7.783   2.536   0.194 -0.1062 -0.4802  0.2434
  103MOL    C5732901   7.680   2.539   0.283 -0.3454  0.3085  0.4561
  103MOL    C5832902   7.594   2.536   0.648  0.3799 -0.4446  0.3081
  103MOL    H5932903   7.495   2.562   0.463  0.8367  0.7054 -1.3019
  103MOL    H6032904   7.847   2.670   0.547 -0.7530 -1.8414  0.2307
  103MOL    H6132905   7.995   2.556   0.156 -1.5406  1.5209 -2.0195
  103MOL    H6232906   7.780   2.492   0.095 -1.1028 -0.7721  0.3946
  103MOL    H6332907   7.592   2.481   0.258  1.8976 -3.5798  1.2751
  103MOL    H6432908   7.666   2.585   0.713 -0.7250  2.0743 -0.3215
  103MOL    H6532909   7.495   2.554   0.688  0.2089  0.3550 -0.4664
  103MOL    C6632910   7.612   2.387   0.646  0.8721 -0.0421  0.0176
  103MOL    C6732911   7.747   2.337   0.605 -0.7933  0.0170  0.1365
  103MOL    C6832912   7.854   2.388   0.682 -0.2696 -0.2581 -0.3543
  103MOL    C6932913   7.984   2.373   0.628  0.0569  0.4888  0.6727
  103MOL   Cl7032914   8.120   2.434   0.704 -0.3520 -0.0420  0.0702
  103MOL    C7132915   8.005   2.306   0.504  0.5487 -0.2862  0.5116
  103MOL    C7232916   7.891   2.250   0.437  0.1214 -0.0549 -0.2660
  103MOL    C7332917   7.765   2.254   0.493 -0.4519 -0.1535  0.1418
  103MOL    C7432918   7.571   2.319   0.779 -0.5980 -0.0330 -0.5180
  103MOL    H7532919   7.537   2.367   0.570 -1.7735 -1.7917  2.9595
  103MOL    H7632920   7.840   2.445   0.772 -0.7284 -1.2516  0.2131
  103MOL    H7732921   8.098   2.291   0.451  1.4662  1.5188  1.5432
  103MOL    H7832922   7.912   2.197   0.345 -1.2110 -1.6532  0.3217
  103MOL    H7932923   7.683   2.208   0.441  1.0792 -1.9786 -0.7222
  103MOL    H8032924   7.651   2.260   0.823  0.0361  2.6608  2.1002
  103MOL    H8132925   7.554   2.401   0.850 -2.8781 -1.4061  0.5730
  103MOL    C8232926   7.436   2.240   0.766  0.6741  0.2398  0.2328
  103MOL    C8332927   7.430   2.154   0.639  0.0415  0.1607  0.7992
  103MOL    C8432928   7.326   2.176   0.548  0.3013  0.3603 -0.2283
  103MOL    C8532929   7.293   2.077   0.455 -0.6107  0.3699  0.1304
  103MOL   Cl8632930   7.149   2.105   0.374 -0.0361  0.2054  0.2563
  103MOL    C8732931   7.384   1.967   0.436  0.4166  0.5592 -0.5814
  103MOL    C8832932   7.505   1.963   0.509  0.0857  0.7665  0.2009
  103MOL    C8932933   7.526   2.050   0.616  0.1127 -0.4202 -0.0194
  103MOL    C9032934   7.418   2.158   0.900 -0.4432 -0.3324  0.3960
  103MOL    H9132935   7.359   2.315   0.752  0.0770 -0.5329 -0.6449
  103MOL    H9232936   7.247   2.246   0.574  1.1049  1.1570  0.0778
  103MOL    H9332937   7.361   1.888   0.366 -1.7624 -0.9576  1.7554
  103MOL    H9432938   7.576   1.884   0.488  0.7224  0.5471  2.8873
  103MOL    H9532939   7.607   2.029   0.684 -0.1792 -2.4506 -0.2702
  103MOL    H9632940   7.498   2.089   0.927  1.3348  1.9964  1.1824
  103MOL    H9732941   7.415   2.231   0.981 -0.0332 -0.6241  0.6720
  103MOL    C9832942   7.289   2.069   0.909  0.1913  0.0292  0.6036
  103MOL    C9932943   7.306   1.956   1.010  0.0654 -0.4006 -0.0701
  103MOL   C10032944   7.309   1.980   1.155  0.6098 -0.1894  0.1489
  103MOL   C10132945   7.313   1.872   1.245  0.3824  0.2604 -0.5116
  103MOL  Cl10232946   7.294   1.890   1.422  0.1991  0.0597 -0.1975
  103MOL   C10332947   7.343   1.745   1.193  0.3145 -0.5256 -0.1943
  103MOL   C10432948   7.325   1.714   1.059  0.6923  0.6766  0.5050
  103MOL   C10532949   7.307   1.817   0.970 -0.1449 -0.4819  0.1022
  103MOL   C10632950   7.155   2.148   0.927  0.1779 -0.3568  0.4728
  103MOL   H10732951   7.273   2.019   0.814 -2.1239 -0.7254  1.3599
  103MOL   H10832952   7.278   2.078   1.190  1.3018 -0.6118  1.9504
  103MOL   H10932953   7.363   1.656   1.250  1.3391  0.0406  0.3473
  103MOL   H11032954   7.342   1.614   1.024 -0.2547  0.7717 -0.2345
  103MOL   H11132955   7.294   1.787   0.867 -1.1085  0.6192 -0.1167
  103MOL   H11232956   7.158   2.198   1.024 -1.8789 -0.6278  0.6879
  103MOL   H11332957   7.151   2.226   0.852  0.2511 -1.1442 -0.3497
  103MOL   C11432958   7.024   2.060   0.909 -0.3224 -0.0170  0.1263
  103MOL   C11532959   6.939   2.040   1.037 -0.5722 -0.1231  0.2908
  103MOL   C11632960   6.948   1.914   1.106  0.8431  0.6698  0.5910
  103MOL   C11732961   6.898   1.905   1.235  1.1082  0.4376  0.5397
  103MOL  Cl11832962   6.912   1.758   1.319  0.3046 -0.1554 -0.0874
  103MOL   C11932963   6.835   2.016   1.299  0.0083  0.8935  0.1117
  103MOL   C12032964   6.819   2.138   1.227 -0.2941  0.1180  0.4012
  103MOL   C12132965   6.878   2.151   1.096  0.1313  0.4524  0.3180
  103MOL   C12232966   6.932   2.115   0.785 -0.0676 -1.0485 -0.0200
  103MOL   H12332967   7.053   1.960   0.878  1.4587  0.7268 -0.6740
  103MOL   H12432968   7.009   1.831   1.075 -0.8262 -0.3004 -0.1379
  103MOL   H12532969   6.780   2.013   1.392 -0.2686 -0.3806 -0.0898
  103MOL   H12632970   6.769   2.220   1.276  0.6139 -0.2721  1.9771
  103MOL   H12732971   6.876   2.248   1.048 -0.3562 -0.3806 -1.3731
  103MOL   H12832972   6.909   2.220   0.806 -0.9192 -1.4665  1.1587
  103MOL   H12932973   6.988   2.111   0.691 -0.0019  0.4575 -0.0593
  103MOL   C13032974   6.793   2.052   0.772 -0.3602 -0.3998 -0.3602
  103MOL   C13132975   6.683   2.155   0.813  0.2203 -0.3371  0.3361
  103MOL   C13232976   6.659   2.272   0.746  0.2632 -0.3294 -0.5160
  103MOL   C13332977   6.568   2.374   0.791  0.9279 -0.3229 -0.1421
  103MOL  Cl13432978   6.528   2.514   0.695  0.3029  0.1029  0.0410
  103MOL   C13532979   6.500   2.352   0.911 -0.0060 -0.0710 -0.1772
  103MOL   C13632980   6.518   2.232   0.980 -0.4927  0.2519 -0.4527
  103MOL   C13732981   6.603   2.134   0.930  0.4316  0.2728  0.6750
  103MOL   C13832982   6.780   2.006   0.628  0.2681  0.0361  0.0332
  103MOL   H13932983   6.779   1.968   0.841  1.8358  1.6531  2.7157
  103MOL   H14032984   6.698   2.295   0.648 -1.6660 -1.2491 -1.5291
  103MOL   H14132985   6.448   2.434   0.958  2.2646  1.4441 -0.2341
  103MOL   H14232986   6.461   2.216   1.071 -0.0904  1.5460  0.0452
  103MOL   H14332987   6.619   2.044   0.988 -0.0192 -0.5629 -0.4642
  103MOL   H14432988   6.676   1.988   0.602 -0.5869  2.1154  1.8234
  103MOL   H14532989   6.801   2.084   0.554 -1.7263  0.1180 -0.4675
  103MOL   C14632990   6.867   1.881   0.584 -0.3077 -0.2384 -0.4327
  103MOL   C14732991   6.829   1.753   0.661 -0.8975  0.1275  0.2172
  103MOL   C14832992   6.913   1.707   0.765 -0.6410 -0.1164 -0.0009
  103MOL   C14932993   6.868   1.605   0.852 -0.1942 -0.0913 -0.2380
  103MOL  Cl15032994   6.960   1.581   0.999 -0.0525 -0.2624  0.8147
  103MOL   C15132995   6.741   1.548   0.834  0.5100  0.0562  0.3093
  103MOL   C15232996   6.659   1.584   0.725 -0.2397  0.4505 -0.9244
  103MOL   C15332997   6.706   1.689   0.640  0.3552 -0.9145 -0.6290
  103MOL   C15432998   6.860   1.875   0.427  0.4362  0.0534 -0.7937
  103MOL   H15532999   6.968   1.906   0.615 -0.2640  0.1797 -0.9137
  103MOL   H15633000   7.005   1.752   0.797 -0.5750  0.3792 -0.8574
  103MOL   H15733001   6.703   1.470   0.898 -0.0752 -1.9142 -2.3377
  103MOL   H15833002   6.562   1.538   0.715  0.5248 -1.3457 -0.3646
  103MOL   H15933003   6.649   1.732   0.560  0.8433  0.3344 -0.3140
  103MOL   H16033004   6.756   1.888   0.397  0.7684 -0.3473 -2.1318
  103MOL   H16133005   6.912   1.963   0.388  0.7517  0.7084  1.0207
  103MOL   C16233006   6.916   1.746   0.364 -0.3802 -0.0149  0.2432
  103MOL   C16333007   6.877   1.740   0.215  0.1784 -0.2582 -0.0712
  103MOL   C16433008   6.953   1.812   0.118  0.1088 -0.0079 -0.4094
  103MOL   C16533009   6.913   1.814   8.421  0.5007 -0.1087  0.0378
  103MOL  Cl16633010   7.007   1.897   8.298  0.1108  0.1799  0.3344
  103MOL   C16733011   6.803   1.743   8.381 -0.0630  0.2037 -1.2637
  103MOL   C16833012   6.717   1.679   0.034 -0.5173 -0.5113 -0.0575
  103MOL   C16933013   6.759   1.676   0.169 -0.1315  0.3325 -0.6818
  103MOL   C17033014   7.063   1.704   0.390  0.3057  0.4354  0.4366
  103MOL   H17133015   6.848   1.671   0.404 -0.8818  0.5057  0.3710
  103MOL   H17233016   7.038   1.868   0.155  0.6678 -2.0136  1.4573
  103MOL   H17333017   6.780   1.752   8.276 -1.0556  3.0657 -0.8529
  103MOL   H17433018   6.625   1.633   0.001  0.7237 -0.8057 -3.3657
  103MOL   H17533019   6.693   1.634   0.244 -0.2814  1.0514 -0.4040
  103MOL   H17633020   7.137   1.774   0.351 -0.4735  0.5486 -0.8862
  103MOL   H17733021   7.086   1.711   0.496  1.5018  1.8252  0.1075
  103MOL   C17833022   7.096   1.560   0.355 -0.0847  0.1545  0.0924
  103MOL   C17933023   7.246   1.551   0.314  0.6148 -0.0111 -0.4639
  103MOL   C18033024   7.281   1.537   0.180 -0.1585  0.1987 -0.3724
  103MOL   C18133025   7.417   1.531   0.141  0.1071 -0.0999  0.2237
  103MOL  Cl18233026   7.448   1.489   8.412 -0.1733 -0.2409  0.0522
  103MOL   C18333027   7.519   1.554   0.243  0.4864  0.3942  0.2243
  103MOL   C18433028   7.483   1.578   0.377  0.7733  0.4415 -0.0438
  103MOL   C18533029   7.343   1.584   0.411 -0.8499 -0.0174 -0.7927
  103MOL   C18633030   7.059   1.470   0.474  0.2814  0.5584  0.1346
  103MOL   H18733031   7.035   1.538   0.268 -0.2262 -1.0286  0.4769
  103MOL   H18833032   7.212   1.525   0.097  0.9082  1.4872 -1.4724
  103MOL   H18933033   7.619   1.536   0.207 -0.1655 -1.7191 -0.6096
  103MOL   H19033034   7.565   1.605   0.443  0.0939  1.6060  0.3518
  103MOL   H19133035   7.316   1.598   0.515  2.2688  1.3903 -0.1106
  103MOL   H19233036   7.135   1.468   0.552  1.1841  3.6592 -0.6236
  103MOL   H19333037   6.972   1.512   0.524 -0.3168  0.9959 -1.2438
  103MOL   C19433038   7.012   1.330   0.433  0.8558 -0.3451  0.5311
  103MOL   C19533039   6.991   1.246   0.558  0.6469 -0.0865 -0.7789
  103MOL   C19633040   7.076   1.135   0.582  0.4596 -0.2946  0.3379
  103MOL   C19733041   7.049   1.051   0.693 -0.1355 -0.4632 -0.8278
  103MOL  Cl19833042   7.152   0.917   0.717 -0.1131 -0.3235 -0.2813
  103MOL   C19933043   6.953   1.086   0.789 -0.3786 -0.1212  0.3083
  103MOL   C20033044   6.872   1.201   0.763  0.6532 -1.1495 -0.2091
  103MOL   C20133045   6.894   1.278   0.649 -0.2622  0.0683  0.2070
  103MOL   C20233046   6.881   1.326   0.352 -0.5557  0.4061  0.7157
  103MOL   H20333047   7.093   1.277   0.382 -0.1142 -1.6283  0.2858
  103MOL   H20433048   7.164   1.114   0.523  0.7215 -1.0726  0.9970
  103MOL   H20533049   6.944   1.023   0.876 -1.1642  0.9138  0.9851
  103MOL   H20633050   6.791   1.227   0.829  0.0087 -0.3047 -1.3054
  103MOL   H20733051   6.825   1.360   0.629 -0.3321 -0.3762 -1.4239
  103MOL   H20833052   6.809   1.373   0.420 -1.1834 -1.1682  1.1456
  103MOL   H20933053   6.890   1.385   0.261  1.7500 -2.1596 -0.7824
  103MOL   C21033054   6.820   1.184   0.323  0.3757  0.4749  0.5292
  103MOL   C21133055   6.685   1.204   0.256  0.5268  0.4912 -0.1357
  103MOL   C21233056   6.678   1.273   0.132  0.7214  0.5195 -0.2998
  103MOL   C21333057   6.550   1.297   0.078 -0.0371 -0.0065  0.5193
  103MOL  Cl21433058   6.536   1.364   8.352  0.0065 -0.1030 -0.0185
  103MOL   C21533059   6.431   1.255   0.152 -0.0732  0.9952 -0.5243
  103MOL   C21633060   6.441   1.183   0.276  0.2042 -0.0842 -0.0049
  103MOL   C21733061   6.568   1.153   0.318 -0.0678  0.8229 -0.3280
  103MOL   C21833062   6.914   1.095   0.248 -0.3524 -0.5592  0.2111
  103MOL   H21933063   6.802   1.142   0.422  0.6479  0.5225  0.5980
  103MOL   H22033064   6.764   1.302   0.073 -0.4537  2.1317 -1.2686
  103MOL   H22133065   6.331   1.256   0.112 -0.5619 -1.7632  0.5278
  103MOL   H22233066   6.350   1.164   0.330  1.4614 -1.6517  1.6128
  103MOL   H22333067   6.568   1.110   0.417 -0.9472  1.3263 -0.1032
  103MOL   H22433068   6.939   1.140   0.152 -1.2897  0.9108  0.6457
  103MOL   H22533069   7.009   1.092   0.302  0.5173  0.2673 -1.2272
  103MOL   C22633070   6.856   0.954   0.203  0.2393  0.0702 -0.5646
  103MOL   C22733071   6.952   0.883   0.106 -0.0695  0.2512 -0.1210
  103MOL   C22833072   6.905   0.863   8.411 -0.7759 -0.7608  0.3567
  103MOL   C22933073   6.992   0.803   8.319  0.0876  0.6104  0.2700
  103MOL  Cl23033074   6.956   0.792   8.147  0.2900  0.0296  0.4880
  103MOL   C23133075   7.123   0.762   8.362 -0.0779  0.7622 -0.0506
  103MOL   C23233076   7.163   0.782   0.063  0.4170 -0.5340 -0.5766
  103MOL   C23333077   7.080   0.844   0.153  0.5006 -0.1419  0.0399
  103MOL   C23433078   6.817   0.856   0.326  0.3881 -0.3920 -0.4792
  103MOL   H23533079   6.762   0.982   0.155 -0.8716 -1.3910  0.7289
  103MOL   H23633080   6.805   0.892   8.382 -0.6787 -0.7302  0.0496
  103MOL   H23733081   7.199   0.733   8.290 -0.1087  0.9714 -0.1675
  103MOL   H23833082   7.261   0.752   0.097 -0.3396 -1.1480  1.1174
  103MOL   H23933083   7.107   0.834   0.257  1.6660  1.4813 -0.0857
  103MOL   H24033084   6.904   0.825   0.383 -0.5147  1.0169  1.7179
  103MOL   H24133085   6.759   0.916   0.396  2.4676 -0.1465  1.0490
  103MOL   C24233086   6.735   0.727   0.290 -0.3350 -0.5838 -0.2463
  103MOL   C24333087   6.814   0.621   0.210  0.1414  0.5528  0.5618
  103MOL   C24433088   6.772   0.592   0.080 -0.4198 -0.1840 -0.4991
  103MOL   C24533089   6.843   0.496   0.002  0.4710  0.4967  0.3579
  103MOL  Cl24633090   6.790   0.470   8.274 -0.3749 -0.0744 -0.1154
  103MOL   C24733091   6.951   0.430   0.061 -0.1783  0.3986 -0.1786
  103MOL   C24833092   6.988   0.453   0.193  0.1065  0.0610  0.1000
  103MOL   C24933093   6.916   0.544   0.271  1.1553 -0.0476 -0.2132
  103MOL   C25033094   6.664   0.651   0.408  0.1717  0.1876 -0.5656
  103MOL   H25133095   6.660   0.769   0.223  2.5018  1.5604 -2.1919
  103MOL   H25233096   6.700   0.657   0.032  1.1366 -0.0292 -2.6677
  103MOL   H25333097   7.011   0.362   0.002 -0.6709 -2.1400  2.1475
  103MOL   H25433098   7.060   0.392   0.246 -0.4589 -0.2659  0.5030
  103MOL   H25533099   6.955   0.558   0.370  1.1770 -0.6372 -0.1394
  103MOL   H25633100   6.666   0.542   0.409 -0.8466  0.1585 -0.8029
  103MOL   H25733101   6.724   0.671   0.497 -1.4025 -0.8301  0.7535
  103MOL   C25833102   6.514   0.679   0.418  0.5906  0.3099  0.4114
  103MOL   C25933103   6.432   0.617   0.308  0.4065 -0.2545  0.7166
  103MOL   C26033104   6.429   0.476   0.289  0.3605  0.1501 -0.5807
  103MOL   C26133105   6.350   0.413   0.189  0.8838 -0.0479  0.1359
  103MOL  Cl26233106   6.337   0.247   0.170  0.1826  0.3396 -0.0597
  103MOL   C26333107   6.279   0.502   0.105 -0.0320 -0.3491  0.1484
  103MOL   C26433108   6.293   0.643   0.113  0.1476 -0.1252  0.6359
  103MOL   C26533109   6.376   0.699   0.215  0.1224  0.1538  0.3021
  103MOL   C26633110   6.447   0.662   0.556  0.6078  0.1381  0.6818
  103MOL   H26733111   6.502   0.788   0.415 -1.5236  0.0531 -1.5607
  103MOL   H26833112   6.486   0.419   0.361  0.5324  2.0674  0.8481
  103MOL   H26933113   6.221   0.462   0.022 -0.2732 -0.4869  0.3811
  103MOL   H27033114   6.237   0.704   0.043  0.8437 -1.0752 -0.7760
  103MOL   H27133115   6.382   0.806   0.226 -0.8181  0.4835 -2.1895
  103MOL   H27233116   6.341   0.677   0.536  0.6091 -1.0925 -0.3742
  103MOL   H27333117   6.450   0.554   0.573  0.1969 -0.1669 -1.0707
  103MOL   C27433118   6.504   0.746   0.675 -0.3350 -0.1358  0.1452
  103MOL   C27533119   6.470   0.896   0.671 -0.4921 -0.8122 -0.3053
  103MOL   C27633120   6.333   0.932   0.670 -0.1570 -0.7341 -0.6454
  103MOL   C27733121   6.281   1.065   0.671  0.0730 -0.5143  0.4591
  103MOL  Cl27833122   6.111   1.099   0.691 -0.1346  0.1263 -0.1767
  103MOL   C27933123   6.383   1.165   0.672  0.1370 -0.3161  0.6038
  103MOL   C28033124   6.516   1.129   0.691 -0.4878 -0.7921  0.6627
  103MOL   C28133125   6.569   0.998   0.683  0.4507  0.9495 -0.0525
  103MOL   C28233126   6.482   0.688   0.814  0.1790  0.1526  0.1033
  103MOL   H28333127   6.611   0.756   0.661  0.1146  1.2073  4.0270
  103MOL   H28433128   6.259   0.854   0.662  0.5076 -1.5753  1.3519
  103MOL   H28533129   6.362   1.270   0.670  2.4983  0.1698 -1.8241
  103MOL   H28633130   6.592   1.205   0.703  0.3907 -1.5255 -0.2069
  103MOL   H28733131   6.675   0.978   0.692  0.1146 -1.5916 -1.4791
  103MOL   H28833132   6.523   0.758   0.887  0.8709 -1.3348  1.1556
  103MOL   H28933133   6.376   0.682   0.839  0.6231 -0.2991  1.9163
  103MOL   C29033134   6.544   0.545   0.837  0.5909  0.3921 -0.2790
  103MOL   C29133135   6.682   0.528   0.776 -0.2313  0.3134 -0.4738
  103MOL   C29233136   6.722   0.421   0.684  0.4996  0.2383 -0.2638
  103MOL   C29333137   6.852   0.418   0.628 -0.4571  0.3248  0.0547
  103MOL  Cl29433138   6.885   0.298   0.507 -0.3591  0.5093 -0.1068
  103MOL   C29533139   6.942   0.520   0.662 -0.0016 -0.2696  0.4245
  103MOL   C29633140   6.915   0.614   0.762 -0.3260 -0.4855  0.2933
  103MOL   C29733141   6.782   0.624   0.805 -0.1478 -0.2135  0.3033
  103MOL   C29833142   6.543   0.509   0.989  0.2034 -0.3177  0.1465
  103MOL   H29933143   6.480   0.467   0.797  0.5381  0.7647 -0.9310
  103MOL   H30033144   6.652   0.342   0.660  0.2572  0.4916 -0.3884
  103MOL   H30133145   7.044   0.522   0.627  0.4335 -0.0364  1.6848
  103MOL   H30233146   6.988   0.688   0.789 -1.0195  0.1864  0.3414
  103MOL   H30333147   6.763   0.698   0.882 -1.7248 -1.3055  0.9926
  103MOL   H30433148   6.596   0.585   1.046  0.2712  0.6247 -1.1484
  103MOL   H30533149   6.442   0.520   1.028  0.6303 -2.2603  1.8808
  103MOL   C30633150   6.594   0.367   1.028  0.6478  0.5070 -0.8221
  103MOL   C30733151   6.642   0.371   1.175 -0.5499  0.2304  0.1142
  103MOL   C30833152   6.549   0.377   1.278 -0.4574 -0.2946 -0.6585
  103MOL   C30933153   6.585   0.387   1.411 -0.0246 -0.3780  0.3272
  103MOL  Cl31033154   6.464   0.401   1.531  0.0042  0.5404 -0.1308
  103MOL   C31133155   6.723   0.397   1.445 -0.3921 -0.0103 -0.1000
  103MOL   C31233156   6.819   0.386   1.345 -0.0842  0.3905  0.7838
  103MOL   C31333157   6.777   0.370   1.206 -0.1458 -0.8876  0.5336
  103MOL   C31433158   6.496   0.250   1.002  0.3602 -0.0443  0.2936
  103MOL   H31533159   6.681   0.338   0.969  1.9697  1.2724  0.6786
  103MOL   H31633160   6.444   0.375   1.255  0.4383  0.8908 -5.2180
  103MOL   H31733161   6.752   0.428   1.544 -0.9978 -1.6736  0.6251
  103MOL   H31833162   6.921   0.379   1.378  0.8461  0.4640 -1.9576
  103MOL   H31933163   6.848   0.359   1.124 -0.0565  3.1287  0.0037
  103MOL   H32033164   6.539   0.159   1.043  1.9604  0.1777 -0.8429
  103MOL   H32133165   6.406   0.272   1.060  1.0209 -1.7209  2.0028
  103MOL   H32233166   6.477   0.239   0.895  0.5998  1.1900  0.1191
  104MOL     C133167   2.998   1.227   1.758  0.3536 -0.2297 -0.4306
  104MOL     C233168   2.857   1.221   1.721 -0.1777 -0.1720 -0.3491
  104MOL     C333169   2.799   1.120   1.643  0.3213 -0.4678  0.3435
  104MOL     C433170   2.660   1.127   1.603 -0.5198 -0.3755 -0.4017
  104MOL    Cl533171   2.594   1.000   1.513 -0.0239  0.1440  0.4262
  104MOL     C633172   2.574   1.230   1.655 -0.3821 -0.5447  0.6130
  104MOL     C733173   2.638   1.329   1.731 -0.4585 -0.0065 -0.4984
  104MOL     C833174   2.770   1.318   1.771  0.3620  0.5359 -0.0050
  104MOL     C933175   3.021   1.193   1.913  0.2215  0.1939  0.8183
  104MOL    H1033176   3.027   1.330   1.738  0.7730 -0.5698 -1.6326
  104MOL    H1133177   2.852   1.040   1.593  1.9595  0.6015  0.3609
  104MOL    H1233178   2.466   1.223   1.649 -0.2646 -0.7620 -1.6068
  104MOL    H1333179   2.578   1.410   1.769  0.4803  0.6822 -0.4718
  104MOL    H1433180   2.801   1.391   1.844 -1.5187  0.5879  0.7799
  104MOL    H1533181   2.971   1.266   1.978  0.7760  0.2131  1.2199
  104MOL    H1633182   2.991   1.090   1.930 -0.1433  0.4264  1.6093
  104MOL    H1733183   3.054   1.164   1.688  0.8730 -1.0701  0.7249
  104MOL    C1833184   3.171   1.196   1.959 -0.3435 -0.4270 -0.1303
  104MOL    C1933185   3.223   1.340   1.987  0.1569  0.5448 -0.4662
  104MOL    C2033186   3.338   1.383   1.924  0.0562  0.4338  0.0711
  104MOL    C2133187   3.382   1.519   1.948  0.7956  0.2528  0.1460
  104MOL   Cl2233188   3.500   1.578   1.845 -0.0422  0.2618  0.0992
  104MOL    C2333189   3.323   1.593   2.046  0.6295 -0.0003  0.5271
  104MOL    C2433190   3.209   1.543   2.117 -0.3789  0.6131 -0.4410
  104MOL    C2533191   3.161   1.418   2.086 -0.0678 -0.3417  0.2478
  104MOL    C2633192   3.221   1.075   2.044 -0.3015  0.3989 -0.0086
  104MOL    H2733193   3.222   1.180   1.864  0.0154  0.2604 -0.0632
  104MOL    H2833194   3.389   1.318   1.855 -0.1406 -2.4628  2.5104
  104MOL    H2933195   3.341   1.698   2.061  1.7604  0.0844 -1.3647
  104MOL    H3033196   3.164   1.601   2.196 -1.6571 -2.1157  0.8821
  104MOL    H3133197   3.077   1.378   2.140  0.2007  0.5836  1.3700
  104MOL    H3233198   3.138   1.011   2.076 -2.2333  1.9043 -1.8658
  104MOL    H3333199   3.278   1.006   1.982  3.5844  1.2839  2.3827
  104MOL    C3433200   3.303   1.109   2.167  0.6164  0.0587  0.4233
  104MOL    C3533201   3.274   1.005   2.280 -0.2210  0.1753  0.6050
  104MOL    C3633202   3.294   0.871   2.268 -0.2928  0.1485 -0.2216
  104MOL    C3733203   3.281   0.781   2.378  0.5357  0.3688 -0.0982
  104MOL   Cl3833204   3.310   0.612   2.357  0.0454  0.2241 -0.0268
  104MOL    C3933205   3.252   0.832   2.503 -0.3367  0.2710 -0.0878
  104MOL    C4033206   3.226   0.965   2.522 -0.5061 -0.0681 -0.1363
  104MOL    C4133207   3.237   1.051   2.408 -0.4816  1.0690  0.0675
  104MOL    C4233208   3.459   1.113   2.143 -0.6120 -0.4129  0.4622
  104MOL    H4333209   3.280   1.212   2.197  1.7214  0.7616 -1.0954
  104MOL    H4433210   3.330   0.834   2.173 -0.5053  1.8489 -0.9851
  104MOL    H4533211   3.244   0.762   2.585 -2.4407 -0.3626 -0.7908
  104MOL    H4633212   3.189   0.986   2.622 -1.1665 -2.4937  0.1651
  104MOL    H4733213   3.211   1.156   2.418  0.1194  1.3078 -0.7752
  104MOL    H4833214   3.497   1.015   2.114  1.2618 -0.2114  2.1056
  104MOL    H4933215   3.493   1.188   2.070 -1.1053 -0.8165 -0.1796
  104MOL    C5033216   3.535   1.169   2.270 -0.0944  0.6791 -0.5660
  104MOL    C5133217   3.682   1.130   2.272 -0.0137  0.0912  0.1715
  104MOL    C5233218   3.768   1.177   2.173  0.0113  0.1706 -0.1337
  104MOL    C5333219   3.900   1.138   2.169 -0.0206  0.2387  0.5950
  104MOL   Cl5433220   4.016   1.211   2.059 -0.0397  0.1834 -0.1046
  104MOL    C5533221   3.956   1.051   2.267 -0.7966  0.1854 -0.0850
  104MOL    C5633222   3.869   1.001   2.366 -0.4145 -0.6284 -0.1056
  104MOL    C5733223   3.733   1.045   2.370  0.2318  0.3078  0.1794
  104MOL    C5833224   3.521   1.324   2.299 -0.2470  0.4390  0.3985
  104MOL    H5933225   3.488   1.124   2.357 -0.8120  0.8107 -0.8833
  104MOL    H6033226   3.729   1.246   2.100  0.2863 -0.3469 -0.7826
  104MOL    H6133227   4.056   1.012   2.258  0.1548  2.7712 -1.2636
  104MOL    H6233228   3.905   0.925   2.434  0.5798  0.2073  0.3068
  104MOL    H6333229   3.665   1.010   2.446 -1.3708  1.1923 -0.8158
  104MOL    H6433230   3.591   1.386   2.243 -0.1381 -0.9584 -1.0224
  104MOL    H6533231   3.422   1.362   2.276 -0.4964  0.4778  1.4919
  104MOL    C6633232   3.528   1.369   2.447 -0.4706  0.6640  0.0662
  104MOL    C6733233   3.546   1.519   2.455  1.0400 -0.6996  0.7466
  104MOL    C6833234   3.461   1.611   2.388 -0.0505  0.2873  0.3984
  104MOL    C6933235   3.477   1.749   2.403 -0.4906  0.6167  0.0981
  104MOL   Cl7033236   3.357   1.855   2.341  0.3600  0.3043 -0.4178
  104MOL    C7133237   3.579   1.800   2.485  0.2808 -0.0077  0.4918
  104MOL    C7233238   3.666   1.712   2.549 -0.2235 -1.0189  0.4827
  104MOL    C7333239   3.652   1.577   2.532 -0.1337  0.0869  0.0305
  104MOL    C7433240   3.417   1.321   2.535  0.8009  0.5301  0.6999
  104MOL    H7533241   3.621   1.325   2.483  0.1404  1.9831  0.1234
  104MOL    H7633242   3.380   1.571   2.329 -0.7285  2.3494 -0.1211
  104MOL    H7733243   3.580   1.905   2.509 -3.0132  0.2185 -0.1572
  104MOL    H7833244   3.729   1.738   2.633 -0.3741  0.3577  0.1784
  104MOL    H7933245   3.722   1.515   2.586 -0.3516 -1.3046 -1.2512
  104MOL    H8033246   3.326   1.365   2.495  1.3795  0.7303 -0.4195
  104MOL    H8133247   3.420   1.213   2.526 -0.0813  0.7392 -2.7400
  104MOL    C8233248   3.417   1.360   2.684  0.4140  0.2752 -0.4155
  104MOL    C8333249   3.269   1.379   2.718  0.1490  0.2968 -0.6676
  104MOL    C8433250   3.188   1.270   2.768  0.1348 -0.3426  0.2905
  104MOL    C8533251   3.054   1.290   2.791  0.2606  0.1513  0.2395
  104MOL   Cl8633252   2.955   1.169   2.866  0.1898 -0.3484 -0.0410
  104MOL    C8733253   2.992   1.413   2.755 -1.0179  0.2879 -0.4489
  104MOL    C8833254   3.070   1.520   2.715  0.0270 -0.4919  0.1101
  104MOL    C8933255   3.211   1.503   2.695  0.6645 -0.4656  0.3377
  104MOL    C9033256   3.495   1.257   2.773 -0.6323  0.5681  0.4560
  104MOL    H9133257   3.467   1.457   2.686  1.3211 -0.1678 -1.5073
  104MOL    H9233258   3.222   1.170   2.788 -0.9936 -0.9362 -0.7219
  104MOL    H9333259   2.888   1.435   2.771 -1.8945 -3.1073 -1.1502
  104MOL    H9433260   3.041   1.621   2.691 -1.8088 -1.2038 -0.7714
  104MOL    H9533261   3.273   1.581   2.653  0.1033 -0.0351  0.3022
  104MOL    H9633262   3.430   1.177   2.809  2.0157 -1.3132  1.2525
  104MOL    H9733263   3.573   1.207   2.715 -1.5736  1.6901 -1.8439
  104MOL    C9833264   3.544   1.328   2.904 -0.2417  0.4888  0.1689
  104MOL    C9933265   3.575   1.227   3.009 -0.1665  0.7995 -0.4868
  104MOL   C10033266   3.700   1.151   3.002  0.4037  0.1403  0.2175
  104MOL   C10133267   3.731   1.054   3.103 -0.0904  0.2403 -0.5270
  104MOL  Cl10233268   3.872   0.958   3.082 -0.1976  0.5033 -0.3107
  104MOL   C10333269   3.627   1.015   3.193 -0.7298  0.2629  0.2700
  104MOL   C10433270   3.503   1.079   3.180 -0.5062  0.0263 -0.0818
  104MOL   C10533271   3.473   1.177   3.090 -1.2239 -0.4180 -0.1462
  104MOL   C10633272   3.659   1.430   2.868  0.0687 -0.2999  0.4244
  104MOL   H10733273   3.463   1.385   2.950 -0.7628 -0.9327  1.0564
  104MOL   H10833274   3.771   1.173   2.925 -0.6558 -1.1891 -1.1866
  104MOL   H10933275   3.638   0.947   3.276 -1.3488  1.0157  0.9696
  104MOL   H11033276   3.419   1.066   3.247 -0.7266  1.2059 -0.1241
  104MOL   H11133277   3.378   1.227   3.102 -0.8376  1.2808 -3.6902
  104MOL   H11233278   3.729   1.393   2.793  0.4072 -0.0687  0.6261
  104MOL   H11333279   3.610   1.511   2.814 -1.3640 -0.5239  1.3685
  104MOL   C11433280   3.746   1.498   2.981 -0.2659  0.3555 -0.4434
  104MOL   C11533281   3.885   1.440   2.968  0.3862 -0.6959  0.2128
  104MOL   C11633282   3.941   1.355   3.060 -0.1494 -1.2116 -0.2587
  104MOL   C11733283   4.073   1.307   3.054 -0.1693 -0.6182  0.7218
  104MOL  Cl11833284   4.111   1.203   3.181  0.3908  0.6076 -0.4347
  104MOL   C11933285   4.158   1.338   2.943 -0.4188  0.0901 -0.2766
  104MOL   C12033286   4.097   1.413   2.840  0.3020 -0.1451 -0.3137
  104MOL   C12133287   3.965   1.470   2.854  0.1685 -0.1135 -0.0828
  104MOL   C12233288   3.742   1.652   2.973 -0.2730  0.5553 -0.2757
  104MOL   H12333289   3.705   1.484   3.081 -0.8854  0.0408 -0.7386
  104MOL   H12433290   3.876   1.317   3.137 -0.5815 -1.7058 -0.8585
  104MOL   H12533291   4.259   1.301   2.940  0.1328  1.4973  0.6913
  104MOL   H12633292   4.170   1.443   2.766  1.4166  1.9299  1.5742
  104MOL   H12733293   3.924   1.532   2.775  1.3832 -1.0946 -1.5260
  104MOL   H12833294   3.791   1.681   2.880  2.8193 -1.3589  0.6546
  104MOL   H12933295   3.640   1.689   2.977 -0.6288 -0.5644  1.9251
  104MOL   C13033296   3.813   1.720   3.093  0.6381 -0.2886  0.0635
  104MOL   C13133297   3.905   1.834   3.054  0.1748  0.2197  0.4142
  104MOL   C13233298   3.859   1.959   2.998 -0.2313 -0.6186 -0.3801
  104MOL   C13333299   3.950   2.057   2.954 -0.3431 -0.2492  0.0299
  104MOL  Cl13433300   3.889   2.207   2.896  0.0860 -0.0613 -0.0254
  104MOL   C13533301   4.089   2.033   2.963  0.3452  0.3857 -0.1268
  104MOL   C13633302   4.135   1.907   3.013  0.5802 -0.0761 -0.2646
  104MOL   C13733303   4.043   1.807   3.053 -0.4169 -0.0959 -0.1928
  104MOL   C13833304   3.715   1.781   3.205  0.7822  0.0499  0.4089
  104MOL   H13933305   3.876   1.650   3.147  1.6772  1.8146  1.6407
  104MOL   H14033306   3.752   1.970   2.984 -0.1297 -1.5016 -1.9408
  104MOL   H14133307   4.164   2.100   2.924  0.3956  0.3391 -0.1086
  104MOL   H14233308   4.241   1.887   3.008  0.6440 -0.4925  2.2883
  104MOL   H14333309   4.082   1.709   3.078 -2.3320 -0.5299  1.2934
  104MOL   H14433310   3.764   1.831   3.289 -0.5765  0.4942  0.9500
  104MOL   H14533311   3.653   1.857   3.158 -0.4986 -1.5458 -0.5422
  104MOL   C14633312   3.623   1.671   3.272 -0.1134 -0.0576 -0.0291
  104MOL   C14733313   3.699   1.555   3.337  0.2220  0.4213 -0.2671
  104MOL   C14833314   3.810   1.577   3.418 -0.3067 -0.0519 -0.2777
  104MOL   C14933315   3.869   1.474   3.491 -1.4218 -0.0705  0.1373
  104MOL  Cl15033316   3.986   1.514   3.611  0.5655  0.0060  0.0773
  104MOL   C15133317   3.824   1.342   3.477 -0.0807 -0.1692 -0.8257
  104MOL   C15233318   3.711   1.319   3.399 -0.7408  0.1137 -0.1433
  104MOL   C15333319   3.648   1.424   3.329  0.0469  0.3511 -0.0301
  104MOL   C15433320   3.527   1.733   3.374  0.3903 -0.2476 -0.0512
  104MOL   H15533321   3.574   1.632   3.184  0.5001 -1.1619  0.1055
  104MOL   H15633322   3.849   1.676   3.434 -0.3162  0.0475 -0.8512
  104MOL   H15733323   3.877   1.263   3.528 -1.1783 -0.4088 -0.0488
  104MOL   H15833324   3.652   1.228   3.409  0.1032 -0.5253 -0.9098
  104MOL   H15933325   3.551   1.407   3.285 -0.3387  3.3772 -0.5103
  104MOL   H16033326   3.503   1.675   3.463 -1.6720  0.7816  0.1021
  104MOL   H16133327   3.564   1.823   3.421  0.4843 -0.6544  0.6633
  104MOL   C16233328   3.389   1.759   3.305 -0.7376 -0.4585 -0.1671
  104MOL   C16333329   3.319   1.626   3.276 -0.0350  0.2271 -0.6118
  104MOL   C16433330   3.280   1.545   3.385 -0.1199 -0.0869  0.7254
  104MOL   C16533331   3.214   1.419   3.357  0.1693 -0.4690 -0.0243
  104MOL  Cl16633332   3.196   1.313   3.489 -0.6550 -0.2356  0.2961
  104MOL   C16733333   3.192   1.375   3.229 -0.6197  0.6237 -0.4391
  104MOL   C16833334   3.228   1.460   3.120 -0.3907 -0.1136  0.0253
  104MOL   C16933335   3.296   1.583   3.142  0.4527  0.0320  0.2340
  104MOL   C17033336   3.309   1.863   3.386  0.3310 -0.6504  0.6070
  104MOL   H17133337   3.413   1.805   3.209 -0.1335 -1.2960 -0.4237
  104MOL   H17233338   3.298   1.585   3.484  1.0903 -0.1233  0.5329
  104MOL   H17333339   3.151   1.276   3.215  0.3684  0.2513 -0.6859
  104MOL   H17433340   3.221   1.426   3.018 -2.3642 -1.2401  0.5197
  104MOL   H17533341   3.327   1.638   3.055 -0.8066 -1.7157 -1.3557
  104MOL   H17633342   3.266   1.814   3.474 -1.0796 -1.5441 -0.5689
  104MOL   H17733343   3.381   1.941   3.411 -0.2752  0.2175 -0.3462
  104MOL   C17833344   3.181   1.928   3.316  0.6593 -0.4095 -0.7995
  104MOL   C17933345   3.061   1.829   3.300 -0.4276  0.2979 -0.1357
  104MOL   C18033346   3.011   1.780   3.174 -0.5617  0.1221  0.3305
  104MOL   C18133347   2.928   1.670   3.175 -0.0952 -0.2631 -0.0655
  104MOL  Cl18233348   2.901   1.580   3.030  0.0149  0.2456 -0.1978
  104MOL   C18333349   2.875   1.611   3.289  0.2805 -0.8257 -0.7505
  104MOL   C18433350   2.913   1.665   3.416  0.6639 -0.4865  0.2650
  104MOL   C18533351   2.996   1.783   3.419 -0.0858 -0.6538  0.2993
  104MOL   C18633352   3.116   2.061   3.366 -0.5710  1.0912 -0.0623
  104MOL   H18733353   3.209   1.941   3.211 -0.4706  0.1114 -1.0404
  104MOL   H18833354   3.040   1.813   3.075 -1.6104 -1.3844 -0.4928
  104MOL   H18933355   2.809   1.527   3.279  0.6556 -0.9344 -2.4612
  104MOL   H19033356   2.874   1.621   3.507 -0.7862  2.0161  0.8947
  104MOL   H19133357   3.030   1.824   3.513 -2.6931 -1.4323  1.6307
  104MOL   H19233358   3.026   2.097   3.316  0.1010  1.0766 -1.2926
  104MOL   H19333359   3.071   2.047   3.465 -0.8087  0.4452 -0.2615
  104MOL   C19433360   3.226   2.171   3.369  0.9243 -0.3003  0.7276
  104MOL   C19533361   3.249   2.219   3.230  0.3903 -0.0970  0.0325
  104MOL   C19633362   3.367   2.163   3.173 -0.2877  0.6329  0.2283
  104MOL   C19733363   3.403   2.203   3.043 -0.1119 -0.4962 -0.0138
  104MOL  Cl19833364   3.538   2.133   2.968  0.2180 -0.0985  0.1301
  104MOL   C19933365   3.343   2.311   2.980  0.2086  0.6346  0.0503
  104MOL   C20033366   3.221   2.363   3.042 -0.2570  0.3503 -0.4784
  104MOL   C20133367   3.165   2.306   3.162 -0.2844  0.3552  0.1244
  104MOL   C20233368   3.190   2.296   3.456  0.0201  0.3538 -0.0581
  104MOL   H20333369   3.316   2.121   3.406 -1.1149 -2.0665  3.5249
  104MOL   H20433370   3.425   2.089   3.226  1.2314  2.4173  1.1270
  104MOL   H20533371   3.377   2.350   2.885  0.5804  4.0910  1.5248
  104MOL   H20633372   3.157   2.432   2.989  0.6584 -0.5526 -2.8336
  104MOL   H20733373   3.067   2.329   3.200 -0.7116  1.9085 -1.8441
  104MOL   H20833374   3.283   2.353   3.453 -0.0118  0.3616 -1.2163
  104MOL   H20933375   3.109   2.352   3.410 -0.0714  0.5872  0.3801
  104MOL   C21033376   3.148   2.278   3.605 -0.2688 -0.0969  0.2766
  104MOL   C21133377   3.251   2.185   3.667 -0.3006  0.6704 -0.1630
  104MOL   C21233378   3.389   2.213   3.668  0.6985 -0.5327  0.1817
  104MOL   C21333379   3.487   2.132   3.729 -0.0151  0.0442 -0.7823
  104MOL  Cl21433380   3.648   2.191   3.737  0.4080 -0.6162  0.5125
  104MOL   C21533381   3.447   2.008   3.795  0.0984 -0.2665  0.6639
  104MOL   C21633382   3.315   1.976   3.791  0.2175 -0.0819 -0.0061
  104MOL   C21733383   3.220   2.067   3.732  0.1190  0.3161  0.2814
  104MOL   C21833384   3.159   2.404   3.693 -0.5877  0.8183 -0.2240
  104MOL   H21933385   3.051   2.233   3.623 -1.2636  1.0025 -2.1322
  104MOL   H22033386   3.434   2.302   3.626  1.3296 -1.7861 -1.8282
  104MOL   H22133387   3.521   1.944   3.841 -1.4726 -3.2477 -0.7755
  104MOL   H22233388   3.275   1.886   3.837  1.6986 -0.7001  0.1031
  104MOL   H22333389   3.122   2.022   3.740  0.7958 -1.8874 -2.6598
  104MOL   H22433390   3.120   2.389   3.794 -1.7025  2.2507 -0.4265
  104MOL   H22533391   3.265   2.426   3.704 -0.8827  1.1725  2.2245
  104MOL   C22633392   3.095   2.527   3.627 -0.0056 -0.8485 -0.7923
  104MOL   C22733393   2.943   2.515   3.615 -0.7998  0.5303  0.9303
  104MOL   C22833394   2.882   2.505   3.490 -0.1330  0.4409 -0.3080
  104MOL   C22933395   2.740   2.488   3.485  1.0658 -0.7340  0.0464
  104MOL  Cl23033396   2.663   2.474   3.330 -0.4068 -0.0604  0.2020
  104MOL   C23133397   2.666   2.479   3.608 -0.2829  0.3560 -0.9268
  104MOL   C23233398   2.728   2.482   3.733  0.5252  0.5293  0.3168
  104MOL   C23333399   2.865   2.505   3.734 -0.2119  0.1129  0.0481
  104MOL   C23433400   3.132   2.657   3.709 -0.4391  0.0175  0.2894
  104MOL   H23533401   3.131   2.552   3.527  0.6246 -1.4382 -0.7166
  104MOL   H23633402   2.942   2.518   3.401 -0.5500  0.9509 -0.5182
  104MOL   H23733403   2.559   2.484   3.600 -0.2958  0.4201 -0.7151
  104MOL   H23833404   2.681   2.485   3.830 -0.1856 -1.5948  0.0793
  104MOL   H23933405   2.912   2.513   3.831  0.5497  0.5570 -0.3541
  104MOL   H24033406   3.073   2.734   3.659 -0.4038  0.5359  1.0374
  104MOL   H24133407   3.102   2.661   3.814  0.4919  0.7911  0.5303
  104MOL   C24233408   3.273   2.710   3.711 -0.0466 -0.4963 -0.6328
  104MOL   C24333409   3.326   2.708   3.563 -0.9704 -0.2315  0.4769
  104MOL   C24433410   3.260   2.792   3.466  0.4370 -0.3831 -0.4808
  104MOL   C24533411   3.301   2.799   3.333  0.2001 -0.3195  0.0857
  104MOL  Cl24633412   3.230   2.908   3.221 -0.1980 -0.2028 -0.1634
  104MOL   C24733413   3.401   2.713   3.288 -0.7277 -0.2926  0.2324
  104MOL   C24833414   3.467   2.625   3.378  0.8040 -0.2588  0.4016
  104MOL   C24933415   3.425   2.621   3.512  0.1466 -0.3878 -0.0631
  104MOL   C25033416   3.292   2.849   3.778 -0.2019  0.3084  0.1376
  104MOL   H25133417   3.334   2.632   3.757 -0.5862 -0.4128  0.2283
  104MOL   H25233418   3.190   2.864   3.505  1.5219 -0.3365  1.4469
  104MOL   H25333419   3.436   2.712   3.186  0.5500 -2.1234  0.6400
  104MOL   H25433420   3.539   2.556   3.337 -0.1371  0.2135 -2.0910
  104MOL   H25533421   3.471   2.559   3.587  0.3058  0.0832  0.2302
  104MOL   H25633422   3.223   2.921   3.735 -0.9082  0.3370  1.2745
  104MOL   H25733423   3.250   2.847   3.879 -1.8751 -3.3048 -0.5553
  104MOL   C25833424   3.438   2.905   3.794 -0.2630  0.0327  0.1558
  104MOL   C25933425   3.449   3.043   3.852 -0.2120  0.2733 -0.4336
  104MOL   C26033426   3.347   3.110   3.925 -0.3269  0.1739 -0.5924
  104MOL   C26133427   3.359   3.245   3.960 -0.1271 -0.4415  0.3751
  104MOL  Cl26233428   3.240   3.330   4.053 -0.0690 -0.3279 -0.0297
  104MOL   C26333429   3.472   3.322   3.919 -0.1656 -0.1759  0.4703
  104MOL   C26433430   3.567   3.261   3.831 -0.9002  0.0695 -0.1493
  104MOL   C26533431   3.556   3.121   3.805 -0.0314 -0.5443 -0.4998
  104MOL   C26633432   3.527   2.809   3.885  0.4011 -0.1000 -0.8698
  104MOL   H26733433   3.503   2.905   3.706 -0.7533  0.5765 -0.2028
  104MOL   H26833434   3.260   3.052   3.950 -0.6013  1.0820  0.6209
  104MOL   H26933435   3.494   3.425   3.945  0.3324 -0.0805 -0.3238
  104MOL   H27033436   3.653   3.312   3.792 -0.0367 -2.2413 -1.3770
  104MOL   H27133437   3.636   3.077   3.746 -0.4937 -1.5536 -0.3783
  104MOL   H27233438   3.538   2.717   3.828  0.4340  1.3683 -3.2700
  104MOL   H27333439   3.628   2.851   3.887  1.2614 -2.0789 -1.0237
  104MOL   C27433440   3.492   2.794   4.032 -0.5320  0.0417  0.4225
  104MOL   C27533441   3.387   2.686   4.055 -0.3574 -0.9713  0.0473
  104MOL   C27633442   3.420   2.554   4.020  0.4511  0.8318  0.1489
  104MOL   C27733443   3.329   2.454   4.063 -0.3921  0.1985 -0.4351
  104MOL  Cl27833444   3.367   2.285   4.021 -0.4197 -0.2010 -0.1073
  104MOL   C27933445   3.206   2.485   4.125 -0.6166  0.3262 -0.1502
  104MOL   C28033446   3.174   2.621   4.152  0.4578 -0.6294  0.4320
  104MOL   C28133447   3.271   2.717   4.127  0.3903  0.3461  0.0375
  104MOL   C28233448   3.614   2.770   4.123 -0.0295 -0.1779 -0.7681
  104MOL   H28333449   3.449   2.891   4.059  0.3986  0.0049  2.1237
  104MOL   H28433450   3.510   2.525   3.968 -0.6163 -1.2591 -0.5846
  104MOL   H28533451   3.126   2.416   4.143 -1.6339  1.8140  1.2372
  104MOL   H28633452   3.079   2.653   4.193  0.7825  2.2583 -0.9969
  104MOL   H28733453   3.255   2.818   4.161 -1.2940 -0.2935  1.2314
  104MOL   H28833454   3.583   2.738   4.223  2.2284 -0.1969 -0.0475
  104MOL   H28933455   3.672   2.684   4.090  1.2416 -0.1512  1.3120
  104MOL   C29033456   3.700   2.884   4.169  0.3007  0.5141  0.6878
  104MOL   C29133457   3.629   2.983   4.259  0.3218  0.3391  0.4235
  104MOL   C29233458   3.595   3.112   4.211  0.2165  0.1105  1.0602
  104MOL   C29333459   3.545   3.205   4.302  0.3890  0.4919  0.3243
  104MOL  Cl29433460   3.538   3.367   4.241  0.2932  0.0189  0.2683
  104MOL   C29533461   3.518   3.169   4.437 -0.1132  0.0862  0.5055
  104MOL   C29633462   3.540   3.038   4.480 -0.1801  0.4455 -0.1106
  104MOL   C29733463   3.604   2.945   4.395 -0.1498  0.6087  0.5598
  104MOL   C29833464   3.829   2.829   4.234 -0.3251 -0.4663  0.5463
  104MOL   H29933465   3.738   2.934   4.080 -0.7655 -0.6517 -0.4507
  104MOL   H30033466   3.604   3.137   4.107 -0.0320  0.8297  1.2077
  104MOL   H30133467   3.478   3.243   4.504  0.0139 -0.0207  0.6998
  104MOL   H30233468   3.533   3.020   4.586 -0.0414  2.3393  0.2322
  104MOL   H30333469   3.626   2.846   4.431  0.4357 -0.3280 -2.2930
  104MOL   H30433470   3.809   2.742   4.297  0.1408  0.2464  1.6966
  104MOL   H30533471   3.897   2.783   4.163 -0.1437 -2.1047  1.7401
  104MOL   C30633472   3.926   2.924   4.307 -0.0236  0.1584  0.1017
  104MOL   C30733473   4.050   2.851   4.352  0.2961  0.3081  0.4374
  104MOL   C30833474   4.074   2.852   4.492  0.6521  0.8213 -0.0191
  104MOL   C30933475   4.199   2.806   4.538 -0.2943  0.5794 -0.5364
  104MOL  Cl31033476   4.264   2.825   4.692 -0.1203 -0.3290  0.1725
  104MOL   C31133477   4.292   2.746   4.446  0.7426  0.6395 -0.1810
  104MOL   C31233478   4.261   2.736   4.308  0.1104  0.1953  0.1229
  104MOL   C31333479   4.140   2.792   4.264  0.8316 -0.1828  0.2864
  104MOL   C31433480   3.977   3.055   4.221  0.7560  0.4486  0.3903
  104MOL   H31533481   3.883   2.960   4.401  0.9140  4.4220 -0.9743
  104MOL   H31633482   4.010   2.901   4.564  1.8399 -0.6433  2.0868
  104MOL   H31733483   4.389   2.713   4.479 -0.0189 -0.5664  0.8880
  104MOL   H31833484   4.332   2.718   4.228 -0.3723 -2.0159  0.1543
  104MOL   H31933485   4.121   2.789   4.157 -0.1269 -1.7823  0.4882
  104MOL   H32033486   4.041   3.110   4.290  2.1670 -0.4215 -0.1988
  104MOL   H32133487   4.036   3.026   4.134 -0.9897  2.8186 -1.6136
  104MOL   H32233488   3.893   3.120   4.197  0.2845  0.2045  1.3311
  105MOL     C133489   5.789   6.976   2.596 -0.2117  0.3929  0.2477
  105MOL     C233490   5.800   6.968   2.445  0.2152  1.0394 -0.0784
  105MOL     C333491   5.736   6.870   2.363  0.3184 -0.2635 -0.2914
  105MOL     C433492   5.741   6.871   2.224 -0.1504 -0.4386  0.1976
  105MOL    Cl533493   5.657   6.767   2.123  0.1433  0.0262  0.4630
  105MOL     C633494   5.817   6.969   2.159 -0.9769  0.2073 -0.4898
  105MOL     C733495   5.891   7.064   2.233  0.0812  0.3223  0.2656
  105MOL     C833496   5.882   7.063   2.375 -0.1055  0.0936 -0.1087
  105MOL     C933497   5.715   7.101   2.651 -0.7497 -0.2529  0.2055
  105MOL    H1033498   5.889   6.999   2.632 -0.7484  0.0767  2.0207
  105MOL    H1133499   5.665   6.805   2.413  1.9309 -1.5805  0.3166
  105MOL    H1233500   5.813   6.971   2.051  1.1785  0.8884 -0.5779
  105MOL    H1333501   5.954   7.129   2.175  0.1707 -0.5081 -0.5746
  105MOL    H1433502   5.938   7.136   2.432  0.1738 -0.1247 -0.1037
  105MOL    H1533503   5.767   7.196   2.634 -0.5043 -0.5466 -0.6865
  105MOL    H1633504   5.613   7.113   2.615 -1.2287 -0.8543  1.3238
  105MOL    H1733505   5.740   6.887   2.636  1.1411 -1.4636 -2.1104
  105MOL    C1833506   5.709   7.100   2.806  0.4555  0.1258 -0.3023
  105MOL    C1933507   5.841   7.092   2.875  0.0536 -0.3408 -0.0728
  105MOL    C2033508   5.895   6.969   2.919  0.1539  0.4066 -0.0327
  105MOL    C2133509   6.024   6.960   2.976 -0.0502 -0.3511  0.3239
  105MOL   Cl2233510   6.095   6.810   3.032 -0.0139 -0.2503 -0.1222
  105MOL    C2333511   6.085   7.078   3.003 -0.4283 -0.1107  0.7792
  105MOL    C2433512   6.028   7.205   2.983  0.1540  0.1548  0.4836
  105MOL    C2533513   5.902   7.209   2.915  0.6607  0.9697 -0.5185
  105MOL    C2633514   5.609   7.208   2.857  1.1839 -0.4248  0.6280
  105MOL    H2733515   5.662   7.004   2.828  0.1249  0.2907 -0.2849
  105MOL    H2833516   5.831   6.883   2.902  0.0004  0.7238 -1.0897
  105MOL    H2933517   6.185   7.079   3.045 -0.2856  1.4684  0.4269
  105MOL    H3033518   6.088   7.291   3.011  1.0494 -0.8759  1.7669
  105MOL    H3133519   5.862   7.305   2.885 -2.2477 -0.5802 -1.7831
  105MOL    H3233520   5.641   7.312   2.845  0.7934 -0.5894 -2.1345
  105MOL    H3333521   5.521   7.198   2.794  1.7334 -3.8474  0.3025
  105MOL    C3433522   5.572   7.189   3.009 -0.0054 -0.1087 -0.2689
  105MOL    C3533523   5.635   7.295   3.100  0.5947  0.0672  0.3732
  105MOL    C3633524   5.724   7.255   3.203  0.2739 -0.3953 -0.4862
  105MOL    C3733525   5.766   7.355   3.296  0.2893  0.5921  0.3501
  105MOL   Cl3833526   5.857   7.317   3.439 -0.0037 -0.1945 -0.0647
  105MOL    C3933527   5.725   7.487   3.286  0.1752  0.5857  0.4478
  105MOL    C4033528   5.647   7.525   3.174 -0.4161 -0.1949 -0.2733
  105MOL    C4133529   5.601   7.432   3.083  0.4093  0.1275 -0.0010
  105MOL    C4233530   5.420   7.188   3.035  0.2439  0.1657  0.2465
  105MOL    H4333531   5.609   7.092   3.043  1.1517 -0.2649 -1.8893
  105MOL    H4433532   5.750   7.152   3.220 -1.6703 -0.6148  1.3980
  105MOL    H4533533   5.757   7.562   3.357  2.7692  1.7128 -1.8256
  105MOL    H4633534   5.617   7.628   3.166  0.3008 -0.1414 -2.6374
  105MOL    H4733535   5.530   7.457   3.005 -1.9321  1.2881  2.4089
  105MOL    H4833536   5.395   7.205   3.140 -1.3827  2.7248 -0.5208
  105MOL    H4933537   5.397   7.283   2.987  0.9852  0.4361  0.4262
  105MOL    C5033538   5.344   7.058   2.994  0.2191 -0.2163 -0.7241
  105MOL    C5133539   5.415   6.926   3.031 -0.1045  0.7778 -0.2768
  105MOL    C5233540   5.484   6.857   2.934 -0.5263 -0.5368  0.2259
  105MOL    C5333541   5.575   6.758   2.964  0.3282 -0.0332 -0.2164
  105MOL   Cl5433542   5.655   6.682   2.838 -0.0494 -0.0074  0.0264
  105MOL    C5533543   5.605   6.724   3.100 -0.3569 -0.5410  0.3721
  105MOL    C5633544   5.543   6.797   3.202 -0.4616 -0.0609 -0.5680
  105MOL    C5733545   5.451   6.899   3.167 -0.6940 -0.6091 -0.2898
  105MOL    C5833546   5.200   7.053   3.052 -1.0538 -0.4878  0.9729
  105MOL    H5933547   5.327   7.065   2.887 -1.0113  2.0676 -0.3927
  105MOL    H6033548   5.483   6.886   2.830  1.9420  3.1290  1.1465
  105MOL    H6133549   5.682   6.655   3.130  0.5133 -0.2139 -1.0637
  105MOL    H6233550   5.572   6.780   3.304 -1.6046  0.6637 -0.1078
  105MOL    H6333551   5.416   6.961   3.247 -1.7872  0.9990 -1.9627
  105MOL    H6433552   5.191   6.954   3.096  0.9445 -1.6825 -1.2185
  105MOL    H6533553   5.184   7.119   3.137 -1.0137  1.7168 -0.6788
  105MOL    C6633554   5.079   7.066   2.957 -0.1223  0.2830 -0.2793
  105MOL    C6733555   4.959   6.989   3.008  0.7261  0.9765  0.3008
  105MOL    C6833556   4.930   6.860   2.952  0.3553 -0.1612 -0.0586
  105MOL    C6933557   4.821   6.783   3.004 -0.0472 -0.2137  0.3330
  105MOL   Cl7033558   4.773   6.634   2.933 -0.1464  0.0791 -0.0889
  105MOL    C7133559   4.747   6.839   3.110 -0.2663  1.6855  0.3338
  105MOL    C7233560   4.776   6.965   3.161  0.0022  0.6096  0.2830
  105MOL    C7333561   4.886   7.034   3.114 -0.3376  1.0444  0.1863
  105MOL    C7433562   5.039   7.221   2.923  0.0109  0.0052 -1.2480
  105MOL    H7533563   5.118   7.020   2.866  0.9679 -1.5515  1.0717
  105MOL    H7633564   4.989   6.810   2.877  1.5257  1.2417 -0.1088
  105MOL    H7733565   4.656   6.786   3.135  0.5742  0.9934  2.0257
  105MOL    H7833566   4.705   7.000   3.235 -0.1543 -0.1527  0.4916
  105MOL    H7933567   4.913   7.122   3.170  0.3076 -0.0697  1.6800
  105MOL    H8033568   4.991   7.275   3.004  1.4636  0.4772 -0.6968
  105MOL    H8133569   5.129   7.280   2.907 -0.5190  0.7186 -1.5962
  105MOL    C8233570   4.944   7.238   2.797  0.1616 -0.0829  0.4182
  105MOL    C8333571   4.858   7.362   2.803 -0.0071  0.5228 -0.1023
  105MOL    C8433572   4.923   7.489   2.796 -0.4092 -0.5107 -1.0224
  105MOL    C8533573   4.844   7.608   2.806  0.9257  0.5841  0.5180
  105MOL   Cl8633574   4.921   7.768   2.799  0.2586  0.0985  0.0844
  105MOL    C8733575   4.701   7.594   2.816  0.0917 -0.3115  0.3289
  105MOL    C8833576   4.639   7.471   2.808 -0.0777  1.0049  0.1888
  105MOL    C8933577   4.721   7.354   2.801 -0.1813 -0.6571 -0.6756
  105MOL    C9033578   5.010   7.216   2.660  0.3592 -0.5028 -0.8714
  105MOL    H9133579   4.861   7.168   2.807  1.1927 -1.1222  1.9714
  105MOL    H9233580   5.031   7.501   2.794 -0.4097 -0.1254  0.7842
  105MOL    H9333581   4.642   7.681   2.842 -0.1810 -0.4304  0.1054
  105MOL    H9433582   4.532   7.467   2.800  0.1225 -0.0644 -2.6031
  105MOL    H9533583   4.666   7.261   2.791  0.4367 -1.1758  0.6309
  105MOL    H9633584   4.963   7.283   2.588  1.9677  0.6143 -0.9107
  105MOL    H9733585   5.116   7.240   2.663 -0.1071  1.6435 -1.0844
  105MOL    C9833586   4.991   7.077   2.600 -0.2497  0.3192 -0.7211
  105MOL    C9933587   4.846   7.037   2.600  0.5701  0.0226 -0.1508
  105MOL   C10033588   4.738   7.120   2.573 -0.9443  0.1390  0.2537
  105MOL   C10133589   4.608   7.067   2.598 -0.0935 -0.1869  0.2044
  105MOL  Cl10233590   4.470   7.168   2.608  0.2821  0.0526  0.1495
  105MOL   C10333591   4.591   6.929   2.614 -0.2240 -0.5008  0.0482
  105MOL   C10433592   4.698   6.840   2.617 -0.2054 -0.0998 -0.3325
  105MOL   C10533593   4.824   6.899   2.618  0.2751 -0.0949  0.1810
  105MOL   C10633594   5.052   7.059   2.461 -0.0976  0.4986 -0.0207
  105MOL   H10733595   5.048   7.001   2.654  0.8478  2.5567  1.3848
  105MOL   H10833596   4.755   7.223   2.545 -0.5830  0.0063 -0.0279
  105MOL   H10933597   4.488   6.898   2.624  0.0511 -0.9407  1.7202
  105MOL   H11033598   4.689   6.733   2.627  1.9363 -0.4570 -1.9220
  105MOL   H11133599   4.910   6.833   2.620  0.5417  0.2413  0.0311
  105MOL   H11233600   5.001   6.975   2.414 -1.9712  0.7280  1.5344
  105MOL   H11333601   5.007   7.131   2.393  0.7460  1.3918  0.3497
  105MOL   C11433602   5.206   7.054   2.452 -0.3087  0.2773 -0.6030
  105MOL   C11533603   5.250   6.909   2.480 -0.6634 -0.2529  0.2711
  105MOL   C11633604   5.235   6.813   2.373 -0.4200 -0.4347 -0.0867
  105MOL   C11733605   5.263   6.673   2.403  0.7962 -0.1284 -0.2992
  105MOL  Cl11833606   5.241   6.556   2.279  0.2646  0.1504 -0.3405
  105MOL   C11933607   5.298   6.633   2.531  0.0716  0.3073 -0.4882
  105MOL   C12033608   5.313   6.724   2.629 -1.0036  0.0470 -0.3268
  105MOL   C12133609   5.292   6.862   2.607 -0.3436  0.2709 -0.1726
  105MOL   C12233610   5.275   7.112   2.330 -0.4044 -0.2274 -0.8648
  105MOL   H12333611   5.244   7.117   2.533  0.2560 -0.6039 -0.1707
  105MOL   H12433612   5.201   6.840   2.274  2.1665 -0.2120 -0.9446
  105MOL   H12533613   5.317   6.529   2.552 -0.2806  0.4881  0.7411
  105MOL   H12633614   5.320   6.684   2.729 -0.0718 -1.9461 -1.1674
  105MOL   H12733615   5.307   6.934   2.685  1.4769  1.6749 -1.7503
  105MOL   H12833616   5.376   7.074   2.314  0.5408  1.3091  1.3405
  105MOL   H12933617   5.224   7.060   2.248  1.8784 -1.1655 -1.7314
  105MOL   C13033618   5.283   7.265   2.312 -0.1154  0.1571  0.4962
  105MOL   C13133619   5.386   7.328   2.416 -0.0493  0.0210 -0.8052
  105MOL   C13233620   5.329   7.395   2.533 -0.5075 -0.3156  0.3440
  105MOL   C13333621   5.416   7.470   2.615  0.1401 -0.3302  0.6625
  105MOL  Cl13433622   5.355   7.551   2.755  0.0138  0.2528  0.4452
  105MOL   C13533623   5.556   7.460   2.606  0.0884  0.1718 -0.0502
  105MOL   C13633624   5.606   7.386   2.501 -0.3701 -0.3787 -0.1274
  105MOL   C13733625   5.522   7.320   2.406  0.0032 -0.5520  0.3768
  105MOL   C13833626   5.306   7.319   2.170  0.2666  1.0949 -0.4893
  105MOL   H13933627   5.185   7.302   2.342 -1.0281 -1.0776 -0.9578
  105MOL   H14033628   5.221   7.392   2.537 -0.6090  0.8168 -1.0372
  105MOL   H14133629   5.625   7.505   2.676  0.5431  2.0603 -1.6738
  105MOL   H14233630   5.712   7.368   2.492 -0.1247 -0.7052  2.8391
  105MOL   H14333631   5.575   7.255   2.338  2.3200 -0.3789  1.9655
  105MOL   H14433632   5.405   7.362   2.165  0.3780  0.6928 -2.1081
  105MOL   H14533633   5.304   7.233   2.102  0.1152  0.0559  0.8148
  105MOL   C14633634   5.201   7.413   2.099  0.1051 -0.1765  0.2244
  105MOL   C14733635   5.159   7.518   2.207  0.0345 -0.0312  0.4740
  105MOL   C14833636   5.028   7.515   2.262 -0.0375 -0.6534 -0.1145
  105MOL   C14933637   4.982   7.612   2.357  0.1231  0.6822 -0.8842
  105MOL  Cl15033638   4.827   7.593   2.420 -0.0741  0.3660  0.0119
  105MOL   C15133639   5.063   7.714   2.401 -0.5106  0.1264 -0.6103
  105MOL   C15233640   5.195   7.716   2.346 -0.1869  0.4307 -0.0056
  105MOL   C15333641   5.244   7.612   2.258 -1.1736 -0.4374 -0.3955
  105MOL   C15433642   5.253   7.468   1.959 -0.4638  0.3677  0.5125
  105MOL   H15533643   5.111   7.361   2.067 -0.6144  0.6784  0.8082
  105MOL   H15633644   4.953   7.453   2.217  0.0335 -1.5530  0.9874
  105MOL   H15733645   5.020   7.789   2.466  1.6997 -0.5348  1.6848
  105MOL   H15833646   5.262   7.797   2.373 -2.3679  2.0234  0.7792
  105MOL   H15933647   5.344   7.616   2.216 -0.6634  0.6329  0.8750
  105MOL   H16033648   5.319   7.554   1.970 -0.4424  0.1662  2.1500
  105MOL   H16133649   5.312   7.394   1.906 -1.7870  0.3913 -1.0325
  105MOL   C16233650   5.145   7.513   1.856 -1.1209 -0.3724  0.9838
  105MOL   C16333651   5.051   7.624   1.916  0.2348 -0.6498  0.6107
  105MOL   C16433652   4.917   7.589   1.957 -0.6001 -0.8722  0.2142
  105MOL   C16533653   4.838   7.686   2.018  1.0351 -0.1954  0.2410
  105MOL  Cl16633654   4.686   7.646   2.086 -0.1073 -0.0717 -0.1080
  105MOL   C16733655   4.881   7.819   2.040  0.4553 -0.3039  0.1839
  105MOL   C16833656   5.009   7.847   1.992 -1.0223 -0.1747 -0.4221
  105MOL   C16933657   5.099   7.754   1.937  0.3640  0.5120 -0.6427
  105MOL   C17033658   5.208   7.548   1.721  0.4388  0.4863  0.0220
  105MOL   H17133659   5.082   7.425   1.842 -0.6731 -0.7377  1.2706
  105MOL   H17233660   4.879   7.490   1.935 -2.9500  0.1249 -0.3695
  105MOL   H17333661   4.821   7.892   2.094  0.7199 -0.7390  1.0728
  105MOL   H17433662   5.061   7.937   2.022 -0.9694 -0.2259 -0.3583
  105MOL   H17533663   5.197   7.784   1.903 -0.9884  2.5196 -2.9359
  105MOL   H17633664   5.276   7.630   1.744  1.5835 -0.6523  0.7933
  105MOL   H17733665   5.262   7.468   1.670  0.8519  1.0176 -0.3635
  105MOL   C17833666   5.106   7.599   1.610 -0.3974 -0.3676 -0.3532
  105MOL   C17933667   5.197   7.708   1.543  0.9066  0.2729 -0.8691
  105MOL   C18033668   5.306   7.663   1.459  0.1604  0.1053  0.0154
  105MOL   C18133669   5.388   7.760   1.399 -0.0346 -0.1942 -0.8242
  105MOL  Cl18233670   5.518   7.728   1.289 -0.4862  0.5374 -0.0213
  105MOL   C18333671   5.369   7.894   1.432  0.7875 -0.3147 -0.8945
  105MOL   C18433672   5.268   7.938   1.524 -0.3198 -0.0685  0.3538
  105MOL   C18533673   5.184   7.841   1.588  0.4024 -0.4154 -0.0664
  105MOL   C18633674   5.059   7.489   1.504 -0.5049  0.1149  0.3805
  105MOL   H18733675   5.018   7.651   1.649  1.6010  0.7610  2.7930
  105MOL   H18833676   5.330   7.562   1.428 -0.2518 -0.6830  2.2131
  105MOL   H18933677   5.425   7.968   1.377 -0.1058  0.3170 -0.9620
  105MOL   H19033678   5.245   8.042   1.543  1.3385  0.3109  0.3560
  105MOL   H19133679   5.101   7.876   1.648 -1.7598 -0.7053 -2.7758
  105MOL   H19233680   5.051   7.536   1.406 -0.4445  0.9831  0.7907
  105MOL   H19333681   5.146   7.424   1.492  0.4766  1.3853  0.5482
  105MOL   C19433682   4.929   7.408   1.540  0.0226 -0.0173 -0.4041
  105MOL   C19533683   4.805   7.500   1.535 -0.7065  0.1248 -0.1188
  105MOL   C19633684   4.763   7.559   1.409 -0.0934  0.4376  0.6595
  105MOL   C19733685   4.665   7.657   1.416 -0.6773  0.0106 -0.5188
  105MOL  Cl19833686   4.608   7.736   1.274  0.1407  0.0873  0.3682
  105MOL   C19933687   4.596   7.690   1.536 -0.2436 -0.5282  0.3039
  105MOL   C20033688   4.631   7.620   1.654  0.2913  0.0463 -0.2412
  105MOL   C20133689   4.738   7.532   1.650  0.1668  0.6471  0.0518
  105MOL   C20233690   4.911   7.275   1.472 -0.6596 -0.5962  0.5854
  105MOL   H20333691   4.944   7.379   1.644  0.3997 -0.8162 -0.6769
  105MOL   H20433692   4.814   7.541   1.315  1.8388 -1.3340  1.9875
  105MOL   H20533693   4.528   7.774   1.540 -2.1727 -1.9329 -1.8978
  105MOL   H20633694   4.586   7.646   1.749 -0.6379 -0.6332 -0.4900
  105MOL   H20733695   4.767   7.492   1.746  0.7790  0.4932 -0.1980
  105MOL   H20833696   4.991   7.213   1.512  0.7045  0.0592 -1.0480
  105MOL   H20933697   4.819   7.229   1.507 -1.1212 -2.1080 -2.3900
  105MOL   C21033698   4.908   7.263   1.310 -0.3902  0.3912  0.2209
  105MOL   C21133699   5.035   7.302   1.240  0.6388 -0.1882 -0.1542
  105MOL   C21233700   5.160   7.252   1.277  0.1175 -0.2300 -0.2923
  105MOL   C21333701   5.277   7.316   1.232 -0.9496 -0.0721 -0.0562
  105MOL  Cl21433702   5.432   7.267   1.303  0.0380  0.2935 -0.0964
  105MOL   C21533703   5.276   7.411   1.134  0.4314  0.3386 -0.7992
  105MOL   C21633704   5.149   7.459   1.093 -0.3966  0.5278 -0.5079
  105MOL   C21733705   5.033   7.411   1.147 -0.3158 -0.6808 -0.7536
  105MOL   C21833706   4.874   7.119   1.274  0.2920  0.1728 -0.7704
  105MOL   H21933707   4.839   7.337   1.271  0.8867 -0.2626 -3.4210
  105MOL   H22033708   5.166   7.178   1.355  1.4056 -0.2441 -0.3914
  105MOL   H22133709   5.367   7.462   1.107 -0.1744  1.1950 -1.2837
  105MOL   H22233710   5.141   7.540   1.021 -1.8515  0.7453 -0.1134
  105MOL   H22333711   4.939   7.454   1.118 -1.1761 -0.6721  1.8866
  105MOL   H22433712   4.950   7.049   1.310  0.3458  1.1884  1.1838
  105MOL   H22533713   4.778   7.085   1.311  0.8495 -1.2331 -0.5906
  105MOL   C22633714   4.855   7.089   1.126 -0.5153 -0.5874 -0.2255
  105MOL   C22733715   4.888   6.947   1.080  0.4555 -0.9227 -0.1615
  105MOL   C22833716   4.797   6.839   1.086  0.0384  0.8201  0.3271
  105MOL   C22933717   4.834   6.712   1.045 -0.7030 -0.6138 -0.8509
  105MOL  Cl23033718   4.709   6.588   1.026  0.1524  0.1038  0.3065
  105MOL   C23133719   4.970   6.683   1.013  1.0315  0.2884 -0.2845
  105MOL   C23233720   5.064   6.786   1.020  0.2822  0.0933 -0.3286
  105MOL   C23333721   5.021   6.921   1.050 -0.6333 -0.1075 -0.3687
  105MOL   C23433722   4.717   7.152   1.084 -0.2912  0.0996 -0.2648
  105MOL   H23533723   4.930   7.144   1.070 -1.0734  0.2975 -0.1274
  105MOL   H23633724   4.702   6.857   1.132  0.2289 -0.1521  1.1161
  105MOL   H23733725   4.999   6.585   0.979  0.2516  0.2411 -0.8282
  105MOL   H23833726   5.160   6.749   0.987  1.0419  1.5255  0.2201
  105MOL   H23933727   5.090   7.001   1.029  1.5573 -1.8120  0.1008
  105MOL   H24033728   4.636   7.137   1.155  0.2425 -0.5362  0.2177
  105MOL   H24133729   4.730   7.258   1.105 -0.2823  0.1100 -0.3244
  105MOL   C24233730   4.676   7.115   0.937 -0.0443 -0.1527  0.0586
  105MOL   C24333731   4.529   7.142   0.926  0.3920  0.8186  1.0964
  105MOL   C24433732   4.477   7.275   0.932 -0.7015 -0.0817 -0.2085
  105MOL   C24533733   4.338   7.297   0.903 -0.1714  0.3590  0.9079
  105MOL  Cl24633734   4.268   7.450   0.938 -0.1094  0.2095 -0.1564
  105MOL   C24733735   4.257   7.194   0.853 -0.2892 -0.4591 -0.2875
  105MOL   C24833736   4.311   7.062   0.851  0.8097  0.0168 -0.0035
  105MOL   C24933737   4.443   7.036   0.885  0.2643 -0.2279  0.0243
  105MOL   C25033738   4.767   7.185   0.831  0.1762  0.1109  0.1451
  105MOL   H25133739   4.701   7.010   0.927 -0.6808 -0.3071  0.0182
  105MOL   H25233740   4.541   7.361   0.946 -0.6339  0.1148 -1.6267
  105MOL   H25333741   4.152   7.209   0.832 -0.9389 -4.3777 -0.2990
  105MOL   H25433742   4.241   6.985   0.822  1.7508 -0.2592 -1.6014
  105MOL   H25533743   4.490   6.940   0.870  2.7750  0.7281  1.4331
  105MOL   H25633744   4.761   7.291   0.854  0.0132 -0.1140  1.1423
  105MOL   H25733745   4.869   7.153   0.853  0.9584  0.6431 -2.4256
  105MOL   C25833746   4.739   7.155   0.682 -0.1787 -0.0632 -0.1536
  105MOL   C25933747   4.756   6.999   0.659 -0.7731  0.1297  0.3846
  105MOL   C26033748   4.676   6.931   0.569  0.9803  0.2605  0.0697
  105MOL   C26133749   4.688   6.788   0.551  0.3647  0.6202 -0.2858
  105MOL  Cl26233750   4.586   6.717   0.430 -0.1310 -0.0647  0.0360
  105MOL   C26333751   4.806   6.724   0.600 -0.0738 -0.6790  0.9106
  105MOL   C26433752   4.892   6.797   0.684 -0.1922 -0.2319 -0.4371
  105MOL   C26533753   4.868   6.929   0.712 -1.0689 -0.6691 -0.4020
  105MOL   C26633754   4.611   7.222   0.624 -0.4980  0.7890 -0.0827
  105MOL   H26733755   4.821   7.207   0.633  0.7041 -0.8340  0.4886
  105MOL   H26833756   4.586   6.979   0.534  1.7940  0.6086 -1.5935
  105MOL   H26933757   4.823   6.619   0.583 -2.9569 -1.0536  0.0718
  105MOL   H27033758   4.973   6.738   0.725 -0.7840  0.0668  1.1869
  105MOL   H27133759   4.938   6.980   0.776 -0.5839 -0.9913 -0.6774
  105MOL   H27233760   4.525   7.162   0.652 -0.9272 -0.8981 -4.6664
  105MOL   H27333761   4.585   7.318   0.669 -0.8338  0.5858  0.1624
  105MOL   C27433762   4.593   7.245   0.476 -0.1148 -0.1333 -0.9496
  105MOL   C27533763   4.448   7.255   0.438  0.5836  0.0586 -0.5113
  105MOL   C27633764   4.344   7.315   0.520 -0.4316  0.6615  0.0746
  105MOL   C27733765   4.207   7.315   0.484 -0.1389 -0.3913  0.2020
  105MOL  Cl27833766   4.085   7.383   0.581 -0.3867 -0.0039  0.0384
  105MOL   C27933767   4.175   7.264   0.356 -0.1527 -0.2509  0.5466
  105MOL   C28033768   4.274   7.204   0.283 -0.4403  0.2589  0.0671
  105MOL   C28133769   4.412   7.194   0.318 -0.0406 -0.1682  0.5440
  105MOL   C28233770   4.660   7.375   0.441  0.4298  0.4748 -0.2083
  105MOL   H28333771   4.634   7.168   0.411 -1.6003 -0.3108 -1.6919
  105MOL   H28433772   4.375   7.361   0.613 -1.7598  0.9911  0.3705
  105MOL   H28533773   4.074   7.262   0.320 -0.9584 -1.9159  2.8101
  105MOL   H28633774   4.251   7.157   0.189 -0.8434  3.8593 -1.7011
  105MOL   H28733775   4.487   7.153   0.252  0.4767 -0.1664  1.1292
  105MOL   H28833776   4.607   7.459   0.487 -0.2668  0.2197 -0.5334
  105MOL   H28933777   4.755   7.376   0.494 -0.2594  1.7835  1.0295
  105MOL   C29033778   4.718   7.405   0.295 -0.1319 -0.1316  0.5834
  105MOL   C29133779   4.603   7.459   0.204  0.6725 -0.4202  0.5030
  105MOL   C29233780   4.535   7.579   0.229 -0.7392  0.7115 -0.4281
  105MOL   C29333781   4.420   7.608   0.154 -0.2495  0.3689 -0.2089
  105MOL  Cl29433782   4.325   7.747   0.183  0.2606  0.0629  0.1449
  105MOL   C29533783   4.386   7.524   0.036  0.6090 -0.1746  0.0282
  105MOL   C29633784   4.468   7.412   0.007 -0.1733  0.3676  0.1895
  105MOL   C29733785   4.574   7.375   0.093  0.1918  0.5797  0.1053
  105MOL   C29833786   4.852   7.485   0.290 -0.0473  0.9925  0.0137
  105MOL   H29933787   4.753   7.309   0.256  1.2712  0.3239  0.6893
  105MOL   H30033788   4.564   7.644   0.311  0.0910 -1.0790  0.7243
  105MOL   H30133789   4.307   7.549   8.403  1.0605 -0.0245 -0.4468
  105MOL   H30233790   4.440   7.358   8.353 -0.0859  0.6914 -0.0348
  105MOL   H30333791   4.616   7.276   0.079 -0.8800  0.1656 -0.1807
  105MOL   H30433792   4.936   7.419   0.311 -1.6512 -0.7978  0.9883
  105MOL   H30533793   4.867   7.525   0.190  3.4294  0.2995  0.1833
  105MOL   C30633794   4.859   7.614   0.385  0.6048  0.1690 -0.1800
  105MOL   C30733795   4.878   7.574   0.528 -0.3442  0.1737  0.3406
  105MOL   C30833796   4.990   7.491   0.568  0.6105  0.9348 -0.6657
  105MOL   C30933797   5.006   7.449   0.703  0.2311 -0.8667  0.1705
  105MOL  Cl31033798   5.150   7.353   0.738 -0.0366  0.3635 -0.1257
  105MOL   C31133799   4.931   7.506   0.800 -0.2014  0.0875 -0.7439
  105MOL   C31233800   4.832   7.593   0.767  0.2168  0.0430 -0.3819
  105MOL   C31333801   4.802   7.631   0.632  0.3380 -0.5328 -0.1818
  105MOL   C31433802   4.960   7.720   0.344 -0.1206 -0.6922 -0.3944
  105MOL   H31533803   4.769   7.674   0.370  1.3833  1.3660 -0.1077
  105MOL   H31633804   5.052   7.447   0.491  2.0012 -1.0007  1.4645
  105MOL   H31733805   4.941   7.481   0.905  0.7267  2.5191 -0.2171
  105MOL   H31833806   4.773   7.620   0.854  1.1245 -1.3401  0.6742
  105MOL   H31933807   4.713   7.689   0.614 -1.1092 -2.8612 -0.6447
  105MOL   H32033808   4.974   7.801   0.416 -0.6399  0.0095 -1.0764
  105MOL   H32133809   5.063   7.692   0.322  0.3698  0.2862  0.6139
  105MOL   H32233810   4.931   7.750   0.243  2.5961  0.7213 -0.8210
  106MOL     C133811   4.688   1.205   7.513 -0.3972  0.1272 -0.1548
  106MOL     C233812   4.812   1.131   7.455  0.3135  0.2931 -0.6141
  106MOL     C333813   4.872   1.030   7.529 -0.9267  0.2017  0.3314
  106MOL     C433814   4.984   0.953   7.482  0.4631  0.1875 -0.4877
  106MOL    Cl533815   5.055   0.836   7.591 -0.0650 -0.3100  0.7331
  106MOL     C633816   5.033   0.978   7.353 -0.1783  0.2609  0.0525
  106MOL     C733817   4.966   1.075   7.272  0.0126  0.3482  0.3061
  106MOL     C833818   4.857   1.150   7.323  0.2784  0.2085 -0.4830
  106MOL     C933819   4.713   1.358   7.525 -0.0477  0.1526  0.0635
  106MOL    H1033820   4.664   1.162   7.611  0.8851  2.6639  1.3372
  106MOL    H1133821   4.835   1.010   7.628 -1.7505 -2.7318 -0.5291
  106MOL    H1233822   5.113   0.919   7.311 -0.9707  0.0312 -1.1480
  106MOL    H1333823   5.015   1.105   7.180  1.1286 -1.9743  0.1017
  106MOL    H1433824   4.811   1.223   7.258 -1.0470 -0.9000 -0.8301
  106MOL    H1533825   4.784   1.381   7.604  0.6792 -1.3076 -0.1366
  106MOL    H1633826   4.754   1.389   7.429  1.6621  0.1347  0.7765
  106MOL    H1733827   4.597   1.177   7.459  0.6995  0.8896 -2.4385
  106MOL    C1833828   4.587   1.446   7.546 -0.2544  0.1987 -0.4422
  106MOL    C1933829   4.523   1.410   7.686  0.0041  0.4680  0.6722
  106MOL    C2033830   4.593   1.441   7.808  0.3228 -0.4040 -0.1877
  106MOL    C2133831   4.535   1.409   7.933  0.3321  0.2364 -0.2646
  106MOL   Cl2233832   4.634   1.416   8.075 -0.0237 -0.4419  0.0912
  106MOL    C2333833   4.410   1.353   7.942 -0.7105  0.8583 -0.1436
  106MOL    C2433834   4.335   1.331   7.824  0.2580  0.0796 -0.1082
  106MOL    C2533835   4.389   1.354   7.698  0.7059  0.1745  0.5358
  106MOL    C2633836   4.638   1.595   7.546 -0.2566  0.4919  0.4302
  106MOL    H2733837   4.526   1.415   7.461  0.6289  2.2108 -1.8807
  106MOL    H2833838   4.697   1.468   7.810  0.0158  0.7845  0.4986
  106MOL    H2933839   4.376   1.324   8.040  2.4070 -2.2873  0.1172
  106MOL    H3033840   4.245   1.276   7.850  0.3586 -0.2093 -0.3659
  106MOL    H3133841   4.336   1.328   7.608  1.2014 -0.6891  0.4778
  106MOL    H3233842   4.708   1.608   7.630 -0.3052  0.2571  0.5065
  106MOL    H3333843   4.704   1.599   7.459  0.6439  0.4158  1.0974
  106MOL    C3433844   4.530   1.711   7.541  0.1265 -0.0638  0.2496
  106MOL    C3533845   4.424   1.681   7.439  0.3928  0.4117 -0.1968
  106MOL    C3633846   4.444   1.722   7.304  0.0020  0.0433  0.6057
  106MOL    C3733847   4.344   1.710   7.207  0.1422 -0.5056 -0.0589
  106MOL   Cl3833848   4.386   1.757   7.046  0.0189 -0.1306  0.2148
  106MOL    C3933849   4.224   1.650   7.238  0.2338  0.1246  0.0673
  106MOL    C4033850   4.190   1.607   7.371 -0.7608 -0.3924  0.5842
  106MOL    C4133851   4.293   1.629   7.471 -0.4861  1.1704 -0.2960
  106MOL    C4233852   4.486   1.746   7.681 -0.3255  0.2645 -0.2249
  106MOL    H4333853   4.587   1.794   7.499 -1.1105  0.1489 -1.0674
  106MOL    H4433854   4.543   1.763   7.289 -0.3261  0.4733 -0.4087
  106MOL    H4533855   4.159   1.632   7.153 -1.3640 -0.7171  1.4151
  106MOL    H4633856   4.097   1.553   7.387 -0.8462  0.0200  1.4977
  106MOL    H4733857   4.270   1.584   7.566 -3.2473 -0.1812 -1.5354
  106MOL    H4833858   4.430   1.668   7.733  0.7820 -0.1937  0.3006
  106MOL    H4933859   4.569   1.772   7.746 -0.2490  2.1580 -1.0711
  106MOL    C5033860   4.414   1.877   7.696 -0.0542 -0.8938  0.7090
  106MOL    C5133861   4.311   1.858   7.808  0.3749 -0.3823  1.4465
  106MOL    C5233862   4.173   1.861   7.777  0.5732  0.1797 -0.3501
  106MOL    C5333863   4.082   1.848   7.882  0.6992 -0.3719 -1.1408
  106MOL   Cl5433864   3.911   1.860   7.856 -0.2245 -0.2828  0.2060
  106MOL    C5533865   4.128   1.847   8.014 -0.6417  0.1564 -0.3166
  106MOL    C5633866   4.259   1.835   8.046 -0.0760 -0.1276  0.4336
  106MOL    C5733867   4.356   1.848   7.942 -0.4086  0.1965  0.1112
  106MOL    C5833868   4.503   1.995   7.703  0.0726 -0.3169  0.2799
  106MOL    H5933869   4.356   1.887   7.605  0.8824 -1.5951  0.0183
  106MOL    H6033870   4.137   1.859   7.675  0.6802  0.6204 -0.3981
  106MOL    H6133871   4.067   1.846   8.103 -1.4687 -1.2705 -0.8843
  106MOL    H6233872   4.303   1.820   8.143 -0.5351  0.9835  0.8279
  106MOL    H6333873   4.463   1.856   7.958 -0.5308 -1.1745  1.6223
  106MOL    H6433874   4.536   2.008   7.806 -1.7396  0.8091  0.7378
  106MOL    H6533875   4.596   1.969   7.652 -0.5884  0.8294 -1.5437
  106MOL    C6633876   4.451   2.132   7.651 -0.7558  0.2682  0.3084
  106MOL    C6733877   4.309   2.154   7.684 -0.2404  0.1020 -0.0859
  106MOL    C6833878   4.206   2.146   7.581  0.4052  0.4720  0.7337
  106MOL    C6933879   4.069   2.154   7.614 -0.8213 -0.0952  0.1936
  106MOL   Cl7033880   3.943   2.136   7.498 -0.2239  0.1127 -0.2793
  106MOL    C7133881   4.035   2.176   7.750 -0.1061  0.1237 -0.2018
  106MOL    C7233882   4.132   2.190   7.850 -0.2137  0.0714 -0.0023
  106MOL    C7333883   4.270   2.175   7.815  0.4123  0.3544  0.6077
  106MOL    C7433884   4.545   2.244   7.701 -0.3957  0.4791  0.2997
  106MOL    H7533885   4.466   2.122   7.543  0.6483 -1.6190  0.6324
  106MOL    H7633886   4.231   2.122   7.479  0.5629  1.3724  0.5669
  106MOL    H7733887   3.928   2.177   7.767 -0.0093  0.7057  0.3863
  106MOL    H7833888   4.113   2.209   7.955  0.8311  3.8411 -0.3952
  106MOL    H7933889   4.349   2.181   7.889  0.4664  1.4650  0.4640
  106MOL    H8033890   4.551   2.226   7.808  1.2916 -1.2028 -0.0424
  106MOL    H8133891   4.635   2.211   7.649  0.4838  2.2334  0.6619
  106MOL    C8233892   4.523   2.390   7.668  0.1925  0.3520  0.2352
  106MOL    C8333893   4.426   2.456   7.766  0.3897  0.6453  0.1501
  106MOL    C8433894   4.466   2.475   7.899 -0.5130  0.8214  0.1284
  106MOL    C8533895   4.388   2.556   7.982 -0.3924 -0.3362 -0.7073
  106MOL   Cl8633896   4.465   2.608   8.132 -0.0417 -0.0472 -0.0091
  106MOL    C8733897   4.268   2.613   7.937 -0.1700 -0.2645  0.0396
  106MOL    C8833898   4.213   2.568   7.818  0.4405  0.1289 -0.1659
  106MOL    C8933899   4.296   2.498   7.728 -0.2858  0.5231  0.0536
  106MOL    C9033900   4.660   2.459   7.663  0.0622 -0.1964  0.6205
  106MOL    H9133901   4.472   2.397   7.572 -2.0654  1.1056  1.4656
  106MOL    H9233902   4.560   2.435   7.936 -0.2504  0.9387 -0.4148
  106MOL    H9333903   4.217   2.676   8.008 -1.9402  0.0696 -1.5003
  106MOL    H9433904   4.114   2.600   7.789  0.6320  0.7299 -0.1603
  106MOL    H9533905   4.255   2.483   7.629  0.4817 -1.1613 -0.0217
  106MOL    H9633906   4.714   2.463   7.757  3.3162 -0.4663 -1.1737
  106MOL    H9733907   4.727   2.399   7.601  1.4760 -1.0202  2.8963
  106MOL    C9833908   4.667   2.613   7.617 -0.5753  0.0018 -0.1195
  106MOL    C9933909   4.638   2.714   7.722  0.2430 -0.1663 -0.6829
  106MOL   C10033910   4.546   2.816   7.690  0.3450 -0.2446 -0.2220
  106MOL   C10133911   4.522   2.914   7.782 -0.8942 -0.0817 -0.3959
  106MOL  Cl10233912   4.417   3.048   7.749  0.0003 -0.2393 -0.2336
  106MOL   C10333913   4.581   2.916   7.907 -0.0067 -0.1963 -0.2963
  106MOL   C10433914   4.656   2.805   7.949  0.4983 -0.0829  0.0638
  106MOL   C10533915   4.693   2.704   7.854  0.2985 -0.1099 -0.3657
  106MOL   C10633916   4.805   2.644   7.551  0.1327  0.2668  0.3885
  106MOL   H10733917   4.590   2.620   7.540 -0.0962  2.2854 -0.4308
  106MOL   H10833918   4.485   2.810   7.601  0.3607 -2.0384 -0.1492
  106MOL   H10933919   4.553   2.995   7.976  0.2931 -2.2767  2.2683
  106MOL   H11033920   4.689   2.812   8.052 -0.9839  1.5645  0.4408
  106MOL   H11133921   4.762   2.629   7.889 -0.7465 -0.7566  0.3830
  106MOL   H11233922   4.819   2.749   7.577 -2.4461  1.7365 -3.5653
  106MOL   H11333923   4.889   2.582   7.580 -1.2781 -2.1524 -0.5789
  106MOL   C11433924   4.816   2.643   7.389  0.4772 -0.2423  0.0142
  106MOL   C11533925   4.789   2.493   7.356 -0.0795 -0.8829  0.6638
  106MOL   C11633926   4.657   2.450   7.330  0.2948  0.5402  0.1515
  106MOL   C11733927   4.635   2.312   7.299  0.0230 -0.7040 -0.1153
  106MOL  Cl11833928   4.469   2.260   7.288 -0.3245  0.3356  0.2980
  106MOL   C11933929   4.746   2.228   7.269 -0.0355  0.0500 -0.9865
  106MOL   C12033930   4.875   2.279   7.292 -0.2070 -0.6021  0.1071
  106MOL   C12133931   4.896   2.407   7.339  0.2026  0.6656  0.3511
  106MOL   C12233932   4.723   2.745   7.310 -0.5150 -0.0078  0.2252
  106MOL   H12333933   4.914   2.673   7.354  0.4010 -0.0516 -0.0395
  106MOL   H12433934   4.571   2.515   7.333 -1.8194 -2.1443 -0.4311
  106MOL   H12533935   4.727   2.124   7.245  2.3826 -0.6246 -0.0727
  106MOL   H12633936   4.963   2.217   7.284  0.1949 -0.0473  0.2116
  106MOL   H12733937   4.997   2.441   7.353  0.1410  0.3002  1.7144
  106MOL   H12833938   4.768   2.724   7.213  1.9943  1.4922  1.0176
  106MOL   H12933939   4.619   2.714   7.312 -0.7240  0.7220  1.7068
  106MOL   C13033940   4.746   2.893   7.343  0.9643  0.3731 -0.3164
  106MOL   C13133941   4.885   2.935   7.366  0.1866 -0.3768 -0.3857
  106MOL   C13233942   4.976   2.927   7.257 -0.1413 -0.5151  0.9174
  106MOL   C13333943   5.111   2.975   7.276  0.1975  0.2257 -0.6617
  106MOL  Cl13433944   5.229   2.959   7.150 -0.2141  0.0725  0.1890
  106MOL   C13533945   5.154   3.021   7.404  0.2873 -0.4573  0.0731
  106MOL   C13633946   5.062   3.029   7.508  0.6815  0.5027  0.1152
  106MOL   C13733947   4.930   2.986   7.493 -0.6494  0.2616 -0.6019
  106MOL   C13833948   4.672   2.985   7.246  0.5778  0.3764 -1.3097
  106MOL   H13933949   4.697   2.906   7.439 -0.3704 -0.2175 -0.9045
  106MOL   H14033950   4.945   2.879   7.166 -2.1540  0.8437  0.8589
  106MOL   H14133951   5.258   3.046   7.423  0.0771 -0.5041  1.2933
  106MOL   H14233952   5.080   3.078   7.603  1.6679  1.4968 -0.5769
  106MOL   H14333953   4.861   3.000   7.575 -0.1320 -0.5205 -0.0266
  106MOL   H14433954   4.726   2.991   7.151  0.0730 -0.7625 -1.6677
  106MOL   H14533955   4.580   2.929   7.234 -0.7617  1.3455  3.5820
  106MOL   C14633956   4.638   3.128   7.299 -0.2929 -0.4635 -0.5565
  106MOL   C14733957   4.747   3.222   7.268  0.5338  0.4364  0.0346
  106MOL   C14833958   4.827   3.277   7.368 -0.3793 -0.1236  0.0631
  106MOL   C14933959   4.924   3.375   7.339  0.2538 -0.2632 -0.0073
  106MOL  Cl15033960   5.021   3.446   7.459  0.1874 -0.2270  0.1645
  106MOL   C15133961   4.943   3.409   7.202 -0.6700 -0.1568 -0.1254
  106MOL   C15233962   4.871   3.345   7.101 -0.1782  1.0991 -0.1803
  106MOL   C15333963   4.764   3.263   7.129  0.1932 -0.2319 -0.3302
  106MOL   C15433964   4.501   3.188   7.256 -0.6306  0.5245  0.0761
  106MOL   H15533965   4.633   3.134   7.408 -1.4453  0.5571 -0.6505
  106MOL   H15633966   4.806   3.250   7.470 -2.4843 -0.6050 -0.4708
  106MOL   H15733967   5.017   3.483   7.176  0.9640 -1.2806  1.2597
  106MOL   H15833968   4.881   3.390   7.003 -0.9826  4.1064  1.0474
  106MOL   H15933969   4.700   3.226   7.049 -1.2534  1.1301  0.1735
  106MOL   H16033970   4.502   3.234   7.157  0.4540  1.2386  0.4080
  106MOL   H16133971   4.445   3.095   7.248  0.2249  0.0107 -0.0661
  106MOL   C16233972   4.424   3.279   7.354  0.9094  0.6384  0.0084
  106MOL   C16333973   4.506   3.405   7.376  0.1455 -0.1158 -0.0611
  106MOL   C16433974   4.553   3.423   7.510 -0.4311  0.1555  0.3295
  106MOL   C16533975   4.634   3.538   7.540 -0.1824  0.6320  0.0880
  106MOL  Cl16633976   4.676   3.575   7.706 -0.0677  0.2889  0.0442
  106MOL   C16733977   4.664   3.628   7.437 -0.3738 -0.7931 -0.1684
  106MOL   C16833978   4.616   3.608   7.303  0.2083  0.4349  0.2861
  106MOL   C16933979   4.539   3.499   7.273  0.0580  0.4994 -0.4148
  106MOL   C17033980   4.274   3.308   7.303 -0.0299 -0.3288 -0.1366
  106MOL   H17133981   4.406   3.226   7.447  0.4795 -0.9690 -0.9780
  106MOL   H17233982   4.525   3.357   7.591  1.3849  0.0716  0.9063
  106MOL   H17333983   4.726   3.716   7.443 -1.4797  0.0564 -0.9796
  106MOL   H17433984   4.629   3.680   7.224  0.9232  1.8055  1.6323
  106MOL   H17533985   4.499   3.493   7.172 -0.8318  1.9020 -0.1692
  106MOL   H17633986   4.231   3.373   7.380  1.7489  1.7523 -0.8463
  106MOL   H17733987   4.282   3.386   7.228 -2.7500 -0.4953 -0.6437
  106MOL   C17833988   4.183   3.184   7.265 -0.5815 -0.7049 -0.2321
  106MOL   C17933989   4.169   3.088   7.379 -0.1992 -0.3346  0.3377
  106MOL   C18033990   4.226   2.961   7.366 -0.1233 -0.4480 -0.3336
  106MOL   C18133991   4.218   2.872   7.472  0.4887  0.2605  0.4268
  106MOL  Cl18233992   4.288   2.714   7.454 -0.2022  0.2971  0.4734
  106MOL   C18333993   4.154   2.908   7.591  0.4433 -0.3354  0.0132
  106MOL   C18433994   4.101   3.035   7.604 -0.4162  0.0372 -0.4663
  106MOL   C18533995   4.101   3.126   7.498  0.0863 -0.1589  0.1170
  106MOL   C18633996   4.043   3.222   7.204 -0.6026  0.2820 -0.6724
  106MOL   H18733997   4.231   3.126   7.187  1.3358  0.7634 -0.1995
  106MOL   H18833998   4.272   2.934   7.272 -0.7659 -1.5098 -0.3491
  106MOL   H18933999   4.145   2.835   7.670 -1.5778 -0.7461 -0.5813
  106MOL   H19034000   4.062   3.075   7.696 -1.0063 -0.0456 -0.6819
  106MOL   H19134001   4.060   3.225   7.513  1.9143  0.7605 -0.7586
  106MOL   H19234002   3.990   3.127   7.208  1.7483 -1.0997 -1.4588
  106MOL   H19334003   3.991   3.290   7.272 -2.1036  0.0199 -1.5571
  106MOL   C19434004   4.054   3.288   7.063  0.4635  0.2714 -0.0951
  106MOL   C19534005   4.150   3.211   6.969 -0.5134  0.2517 -0.1332
  106MOL   C19634006   4.274   3.269   6.934 -0.0096  0.8738  0.1111
  106MOL   C19734007   4.361   3.200   6.853  0.6006  0.3477  0.3094
  106MOL  Cl19834008   4.504   3.273   6.808  0.2626  0.0785  0.1593
  106MOL   C19934009   4.333   3.062   6.826  0.3905  0.1290 -0.4574
  106MOL   C20034010   4.206   3.010   6.859 -0.0603  0.1830 -0.1936
  106MOL   C20134011   4.114   3.083   6.931  0.6822 -0.3514  0.0097
  106MOL   C20234012   3.912   3.312   7.003 -0.3389 -0.0178 -0.5415
  106MOL   H20334013   4.100   3.385   7.081 -0.5833  0.7709 -0.0300
  106MOL   H20434014   4.293   3.371   6.962  0.3328  0.8599 -0.0755
  106MOL   H20534015   4.395   3.000   6.763 -0.0142  0.0312 -0.7601
  106MOL   H20634016   4.181   2.913   6.818  1.6005  0.5113 -2.0980
  106MOL   H20734017   4.022   3.036   6.959 -1.4755  1.0051 -4.3083
  106MOL   H20834018   3.861   3.216   7.000  0.6702 -0.5671 -0.4336
  106MOL   H20934019   3.849   3.372   7.068  0.0347 -1.1563  0.8848
  106MOL   C21034020   3.899   3.390   6.871 -0.4910  0.3582  0.7402
  106MOL   C21134021   4.002   3.502   6.873 -0.6387 -0.5253 -0.2901
  106MOL   C21234022   4.106   3.508   6.777 -0.1200 -0.6743 -0.1472
  106MOL   C21334023   4.200   3.611   6.787  0.1019 -0.1655  0.1595
  106MOL  Cl21434024   4.349   3.585   6.704  0.3970 -0.2556 -0.1501
  106MOL   C21534025   4.187   3.717   6.871 -0.6390  0.6596 -0.5631
  106MOL   C21634026   4.072   3.725   6.953  0.2081 -0.4264 -0.0361
  106MOL   C21734027   3.984   3.614   6.961 -0.4657 -0.9397 -0.0378
  106MOL   C21834028   3.876   3.304   6.743 -0.3954  0.0688 -0.3737
  106MOL   H21934029   3.807   3.449   6.881 -1.4539 -1.2172  1.3614
  106MOL   H22034030   4.129   3.421   6.717  0.3123 -2.0725  1.9726
  106MOL   H22134031   4.254   3.802   6.872 -2.2426  1.9515  1.5413
  106MOL   H22234032   4.060   3.813   7.016  2.8307 -0.9658  1.3069
  106MOL   H22334033   3.893   3.618   7.020  1.3283 -3.7818  3.0788
  106MOL   H22434034   3.879   3.372   6.658  2.9321  1.0695  0.4629
  106MOL   H22534035   3.963   3.241   6.726  1.1942  1.7213  1.4563
  106MOL   C22634036   3.754   3.207   6.736 -0.8132  0.5060 -0.1451
  106MOL   C22734037   3.611   3.262   6.754  0.7146  0.2265 -0.0860
  106MOL   C22834038   3.512   3.173   6.810  0.2906 -0.0163 -0.5223
  106MOL   C22934039   3.376   3.207   6.802 -0.0764  0.1658  0.1718
  106MOL  Cl23034040   3.253   3.103   6.853  0.5236  0.0214  0.4546
  106MOL   C23134041   3.340   3.337   6.752 -0.3799  1.0821 -0.8360
  106MOL   C23234042   3.436   3.417   6.692 -0.1747  0.5319 -0.1573
  106MOL   C23334043   3.572   3.394   6.703  0.4098  0.7807 -0.2588
  106MOL   C23434044   3.756   3.111   6.613 -0.1189  0.4402  0.7840
  106MOL   H23534045   3.768   3.147   6.826 -0.4555  0.2876 -0.3448
  106MOL   H23634046   3.542   3.077   6.849  0.9012  0.0890 -0.7327
  106MOL   H23734047   3.237   3.368   6.745 -1.2365 -0.4842  3.1866
  106MOL   H23834048   3.399   3.496   6.629 -0.8498 -2.0435 -3.1452
  106MOL   H23934049   3.648   3.454   6.655  0.8453  0.3462 -0.1178
  106MOL   H24034050   3.853   3.065   6.629 -0.3652 -0.5310 -0.4361
  106MOL   H24134051   3.677   3.036   6.626 -1.1945  1.1709 -1.2791
  106MOL   C24234052   3.745   3.165   6.466 -0.1714  0.0912  0.4047
  106MOL   C24334053   3.837   3.084   6.367  0.2255  1.0672 -0.0346
  106MOL   C24434054   3.911   3.149   6.266 -0.1989 -0.8009 -0.7540
  106MOL   C24534055   4.013   3.087   6.192 -0.1264 -0.9100  0.1976
  106MOL  Cl24634056   4.112   3.169   6.076  0.1766 -0.2160 -0.3484
  106MOL   C24734057   4.027   2.949   6.217  0.0500 -0.4716  0.3230
  106MOL   C24834058   3.955   2.874   6.315  0.5531 -0.0798 -0.4742
  106MOL   C24934059   3.864   2.946   6.391  0.5668  0.2606 -0.1673
  106MOL   C25034060   3.600   3.194   6.414  0.0160  0.1171  0.0516
  106MOL   H25134061   3.784   3.266   6.479  2.6326 -0.8939 -0.0261
  106MOL   H25234062   3.909   3.256   6.257  3.9734 -0.5056  0.7460
  106MOL   H25334063   4.102   2.899   6.158  0.7051  0.9684 -0.0738
  106MOL   H25434064   3.968   2.768   6.329 -0.7174 -0.2597 -0.5391
  106MOL   H25534065   3.809   2.901   6.472  2.2493  1.0630  1.4531
  106MOL   H25634066   3.538   3.225   6.498  1.7473  0.8699  1.0874
  106MOL   H25734067   3.613   3.277   6.344 -1.0763  0.5023  0.2887
  106MOL   C25834068   3.517   3.088   6.335 -0.0868  0.2132  0.1683
  106MOL   C25934069   3.485   2.965   6.420 -0.1220 -0.7620  0.1724
  106MOL   C26034070   3.539   2.844   6.385 -0.2664  0.3448 -0.0876
  106MOL   C26134071   3.528   2.732   6.471 -1.0812 -0.0200  0.2624
  106MOL  Cl26234072   3.596   2.580   6.440 -0.2008  0.1857  0.0587
  106MOL   C26334073   3.459   2.745   6.594 -0.0159 -1.2355  0.3652
  106MOL   C26434074   3.396   2.868   6.624 -0.1263  0.2164  0.6472
  106MOL   C26534075   3.413   2.980   6.539 -0.1881 -0.3921 -0.2010
  106MOL   C26634076   3.383   3.148   6.278  0.1816 -0.2084 -0.2369
  106MOL   H26734077   3.578   3.055   6.251  1.1631 -0.6330  1.3780
  106MOL   H26834078   3.594   2.825   6.294 -1.0439 -0.1867 -0.4502
  106MOL   H26934079   3.438   2.653   6.646 -1.4691 -1.0046  0.2209
  106MOL   H27034080   3.324   2.880   6.703  0.0614 -3.0508  1.3973
  106MOL   H27134081   3.352   3.069   6.548  0.0341 -0.1739 -0.7885
  106MOL   H27234082   3.328   3.075   6.218  1.5607 -0.3250 -1.3953
  106MOL   H27334083   3.320   3.183   6.359 -0.6480  3.2138 -2.2652
  106MOL   C27434084   3.385   3.268   6.186 -0.4700 -0.7950 -0.4027
  106MOL   C27534085   3.445   3.237   6.046 -0.6734  0.1493  0.2788
  106MOL   C27634086   3.539   3.327   5.991  0.1307 -0.6565 -0.2549
  106MOL   C27734087   3.581   3.311   5.859  0.5260 -0.5437  0.0275
  106MOL  Cl27834088   3.700   3.414   5.798 -0.3109  0.1768  0.1356
  106MOL   C27934089   3.535   3.205   5.778 -0.1391  0.0811  0.3178
  106MOL   C28034090   3.445   3.108   5.833 -0.1462  0.3976 -0.6979
  106MOL   C28134091   3.400   3.128   5.966 -0.1769 -0.5119 -0.1502
  106MOL   C28234092   3.234   3.333   6.177 -0.3653  0.4840  0.0352
  106MOL   H28334093   3.454   3.340   6.231 -0.1826 -0.8344 -0.7806
  106MOL   H28434094   3.563   3.414   6.050  0.4873 -2.3968  2.2529
  106MOL   H28534095   3.576   3.183   5.680  1.4796 -0.5302  1.1149
  106MOL   H28634096   3.411   3.018   5.786  0.7749 -1.4275  1.9747
  106MOL   H28734097   3.332   3.056   6.008  0.3689 -1.3839 -0.7369
  106MOL   H28834098   3.197   3.328   6.075  0.0315 -1.4716 -0.0345
  106MOL   H28934099   3.157   3.270   6.223  0.1784 -1.3826 -1.5622
  106MOL   C29034100   3.214   3.474   6.237  0.7255  0.0008 -0.0766
  106MOL   C29134101   3.323   3.562   6.196 -0.1629  0.3057  0.1939
  106MOL   C29234102   3.412   3.613   6.295 -0.3148  0.5088 -0.1893
  106MOL   C29334103   3.510   3.709   6.263  0.9701 -0.2212  0.1586
  106MOL  Cl29434104   3.615   3.772   6.380 -0.0123  0.0507 -0.1297
  106MOL   C29534105   3.511   3.758   6.131 -0.2660  0.0130 -0.2693
  106MOL   C29634106   3.420   3.712   6.033 -0.7021 -0.1602 -0.1610
  106MOL   C29734107   3.323   3.611   6.064  0.0335  0.2176  0.1109
  106MOL   C29834108   3.069   3.527   6.202  0.3310  0.0311  0.0453
  106MOL   H29934109   3.221   3.463   6.345  1.1909 -2.5985 -0.3356
  106MOL   H30034110   3.405   3.578   6.397  1.4802 -1.4763 -0.7183
  106MOL   H30134111   3.590   3.824   6.099  1.3748 -0.6145  2.2942
  106MOL   H30234112   3.436   3.743   5.931  1.0289 -1.7708 -0.4030
  106MOL   H30334113   3.249   3.577   5.993 -0.2234  1.6603 -0.3071
  106MOL   H30434114   3.057   3.601   6.123  1.2797  1.2994  1.0712
  106MOL   H30534115   2.996   3.449   6.178  0.1776 -0.5664  2.3519
  106MOL   C30634116   3.003   3.594   6.321 -0.2429  0.0279  0.1713
  106MOL   C30734117   3.092   3.706   6.379  0.8262  0.5519  1.0505
  106MOL   C30834118   3.133   3.815   6.296 -0.3745 -0.1579 -0.6383
  106MOL   C30934119   3.214   3.912   6.348 -0.7667 -0.9568 -0.0003
  106MOL  Cl31034120   3.270   4.041   6.252 -0.1645  0.4569 -0.1789
  106MOL   C31134121   3.259   3.904   6.486 -0.0838 -0.2811  1.0126
  106MOL   C31234122   3.216   3.800   6.572  0.0111 -0.0981  0.3448
  106MOL   C31334123   3.133   3.701   6.512 -0.1366  0.0522  0.7051
  106MOL   C31434124   2.864   3.649   6.304  0.5416 -0.2133  0.0167
  106MOL   H31534125   2.999   3.523   6.404  2.1159 -1.8558 -1.2491
  106MOL   H31634126   3.090   3.817   6.196 -2.8211 -0.8408  0.3571
  106MOL   H31734127   3.329   3.979   6.521 -0.5537  1.2070 -1.1177
  106MOL   H31834128   3.244   3.784   6.675  2.0648 -2.1684 -0.4645
  106MOL   H31934129   3.105   3.618   6.575 -0.7410 -1.9394 -2.1206
  106MOL   H32034130   2.833   3.693   6.399 -0.4584  0.8735 -0.8005
  106MOL   H32134131   2.863   3.724   6.225 -0.9373 -1.5188 -1.2510
  106MOL   H32234132   2.784   3.577   6.284 -0.5026  0.7696  0.6093
  107MOL     C134133   2.126   5.170   8.148 -0.0927  0.5382 -1.0393
  107MOL     C234134   2.195   5.234   8.265 -0.3760 -0.2696 -0.2371
  107MOL     C334135   2.154   5.361   8.307  0.5955 -0.2040 -0.1708
  107MOL     C434136   2.223   5.422   8.417 -0.5726 -0.0402 -0.5784
  107MOL    Cl534137   2.173   5.579   0.033  0.0376 -0.1563 -0.3289
  107MOL     C634138   2.339   5.363   0.040  0.3185  0.5762  0.1683
  107MOL     C734139   2.381   5.235   8.428 -0.0507  0.2760  0.2660
  107MOL     C834140   2.313   5.171   8.320  0.1908  0.4842  0.3432
  107MOL     C934141   2.182   5.227   8.017 -0.3115 -0.0518  0.1851
  107MOL    H1034142   2.019   5.191   8.154 -0.5881 -2.0266 -0.1180
  107MOL    H1134143   2.063   5.405   8.269  1.1119  0.6461 -0.4410
  107MOL    H1234144   2.402   5.407   0.117  1.1273 -0.4032  0.0780
  107MOL    H1334145   2.472   5.193   0.032 -0.5423 -2.0704 -1.0001
  107MOL    H1434146   2.344   5.079   8.272 -2.3025  0.5533 -1.5167
  107MOL    H1534147   2.164   5.335   8.018 -2.5501 -0.3997 -1.0449
  107MOL    H1634148   2.289   5.207   8.016 -0.3083 -0.0440 -2.0471
  107MOL    H1734149   2.123   5.061   8.153 -0.7245  0.5263 -1.6382
  107MOL    C1834150   2.120   5.166   7.888 -0.7056  0.4916  0.2713
  107MOL    C1934151   2.131   5.250   7.759 -0.1930 -0.3870 -0.0214
  107MOL    C2034152   2.255   5.290   7.704  0.1926  0.0064  0.0732
  107MOL    C2134153   2.259   5.355   7.582  0.4388 -0.6142 -0.1101
  107MOL   Cl2234154   2.411   5.397   7.511  0.2544  0.3108 -0.2268
  107MOL    C2334155   2.139   5.384   7.516 -0.7244  0.1700 -0.3524
  107MOL    C2434156   2.013   5.357   7.569  0.2839 -0.5834  0.1907
  107MOL    C2534157   2.010   5.288   7.693  0.3228 -0.6991  0.4953
  107MOL    C2634158   2.182   5.030   7.860 -0.3106  0.0215  0.0567
  107MOL    H2734159   2.015   5.168   7.917 -0.8035 -1.7662  0.1389
  107MOL    H2834160   2.346   5.266   7.757  1.2511 -1.8593 -2.5124
  107MOL    H2934161   2.156   5.452   7.434 -0.9828  0.2043 -0.3787
  107MOL    H3034162   1.922   5.381   7.515 -0.2011 -1.2912  0.6925
  107MOL    H3134163   1.917   5.259   7.740 -1.3538 -2.9674 -3.8823
  107MOL    H3234164   2.281   5.026   7.814  0.0294 -1.4668  0.8652
  107MOL    H3334165   2.204   4.985   7.957  0.9956 -1.2439 -0.8055
  107MOL    C3434166   2.092   4.922   7.790 -0.0368  0.5465 -0.1487
  107MOL    C3534167   2.064   4.962   7.643  0.0851 -0.5333 -0.3115
  107MOL    C3634168   1.926   4.963   7.604 -0.1855  0.1395 -0.2000
  107MOL    C3734169   1.901   5.015   7.474  0.2409 -0.2518 -0.1900
  107MOL   Cl3834170   1.738   5.048   7.430 -0.1009 -0.1218 -0.4525
  107MOL    C3934171   2.000   5.059   7.387  0.1494  0.1869  0.0875
  107MOL    C4034172   2.134   5.042   7.423 -0.4584 -0.1400 -0.3529
  107MOL    C4134173   2.168   4.994   7.552 -0.2158  0.2136  0.0027
  107MOL    C4234174   2.154   4.775   7.800 -1.2877  0.7117 -0.3062
  107MOL    H4334175   1.995   4.941   7.836 -1.2702 -0.2519 -2.3335
  107MOL    H4434176   1.853   4.928   7.675  0.2233 -2.6957 -1.1068
  107MOL    H4534177   1.968   5.103   7.293 -0.5275  0.7801  0.5827
  107MOL    H4634178   2.212   5.074   7.355 -0.4918  0.7173  0.0162
  107MOL    H4734179   2.272   4.995   7.583 -0.3072 -0.4957  0.3421
  107MOL    H4834180   2.136   4.724   7.705 -0.4082  1.1922 -0.7400
  107MOL    H4934181   2.262   4.784   7.795 -1.1711 -0.9326 -1.0960
  107MOL    C5034182   2.106   4.699   7.924  0.3456  0.3274 -0.3938
  107MOL    C5134183   1.954   4.682   7.929  0.4900 -1.1779 -0.4982
  107MOL    C5234184   1.881   4.694   8.048  0.3410 -0.2634  0.3144
  107MOL    C5334185   1.742   4.665   8.049 -0.5087 -0.4020  0.6071
  107MOL   Cl5434186   1.660   4.690   8.196 -0.2529  0.3626  0.5282
  107MOL    C5534187   1.677   4.627   7.931 -0.4870  0.1273 -0.2570
  107MOL    C5634188   1.741   4.626   7.809 -0.7790 -0.0205  0.4364
  107MOL    C5734189   1.883   4.653   7.811 -0.3461 -0.3564  0.2459
  107MOL    C5834190   2.183   4.564   7.947  0.2059 -0.2013 -0.1430
  107MOL    H5934191   2.134   4.756   8.013 -1.6454 -0.1606  0.5903
  107MOL    H6034192   1.924   4.730   8.140  0.5543  1.1041 -0.3086
  107MOL    H6134193   1.570   4.612   7.939 -0.9134  2.6511 -0.6276
  107MOL    H6234194   1.692   4.602   7.717  2.4414  1.6573 -1.8294
  107MOL    H6334195   1.934   4.638   7.717  0.0457 -0.9701  0.5493
  107MOL    H6434196   2.133   4.492   8.011 -0.0606  1.1809  1.2209
  107MOL    H6534197   2.182   4.514   7.850  0.2167  1.7141 -1.1567
  107MOL    C6634198   2.324   4.561   7.989 -0.2449 -0.2271  0.0094
  107MOL    C6734199   2.350   4.601   8.129 -0.2905  0.0088  0.1466
  107MOL    C6834200   2.428   4.714   8.149  0.2331 -0.1316  0.2449
  107MOL    C6934201   2.466   4.757   8.277  0.1952 -0.0783  0.7882
  107MOL   Cl7034202   2.549   4.905   8.301  0.1705  0.0515  0.4400
  107MOL    C7134203   2.422   4.688   8.391  0.1318  0.4216 -0.6425
  107MOL    C7234204   2.362   4.563   8.368 -0.1098  0.1865 -0.5998
  107MOL    C7334205   2.322   4.521   8.243 -0.0054  0.5603  0.2263
  107MOL    C7434206   2.384   4.421   7.952 -0.3567  0.3858  0.1993
  107MOL    H7534207   2.376   4.633   7.926  1.4796 -1.2723  0.1865
  107MOL    H7634208   2.464   4.765   8.061  0.7993  0.1690  0.6436
  107MOL    H7734209   2.447   4.730   0.052  0.4862 -0.3141 -0.4063
  107MOL    H7834210   2.334   4.509   0.022  0.0731 -0.5301 -0.9731
  107MOL    H7934211   2.256   4.436   8.230 -1.0975  1.1024  2.1125
  107MOL    H8034212   2.304   4.349   7.972 -0.2113  0.0238 -0.5359
  107MOL    H8134213   2.405   4.392   7.849  0.0902 -0.5653  0.5549
  107MOL    C8234214   2.505   4.373   8.022 -0.5248  0.3064  0.5191
  107MOL    C8334215   2.520   4.225   7.982  0.0809 -0.2981 -0.3788
  107MOL    C8434216   2.578   4.188   7.861 -0.4522  0.2655  1.2979
  107MOL    C8534217   2.584   4.055   7.819  0.8664 -0.7933  1.4111
  107MOL   Cl8634218   2.674   4.014   7.677  0.0571 -0.0590  0.2959
  107MOL    C8734219   2.525   3.957   7.897 -0.2359 -0.2802  0.1845
  107MOL    C8834220   2.462   3.993   8.017 -0.0150 -0.0844 -0.5300
  107MOL    C8934221   2.456   4.128   8.056  0.0615  0.6434 -0.4879
  107MOL    C9034222   2.625   4.462   7.987  0.1180  1.1307 -0.6055
  107MOL    H9134223   2.485   4.374   8.129 -2.6882 -1.8266  0.2000
  107MOL    H9234224   2.638   4.259   7.806  2.1244 -2.5984  0.2215
  107MOL    H9334225   2.536   3.856   7.862  0.0600  0.2166 -1.1673
  107MOL    H9434226   2.423   3.912   8.077 -1.6550 -0.5762 -2.2377
  107MOL    H9534227   2.417   4.139   8.156 -0.2018 -1.3796 -0.3498
  107MOL    H9634228   2.667   4.452   7.887 -0.1063 -1.7052 -0.4553
  107MOL    H9734229   2.596   4.567   7.993  0.6244  1.1983  0.6909
  107MOL    C9834230   2.747   4.433   8.079  0.2544  0.1463 -0.0925
  107MOL    C9934231   2.831   4.313   8.037  0.9400 -0.7272  0.3706
  107MOL   C10034232   2.825   4.196   8.118 -0.3878 -0.2677 -0.0846
  107MOL   C10134233   2.903   4.083   8.082 -0.4360  0.1632 -0.3773
  107MOL  Cl10234234   2.889   3.929   8.168  0.6188  0.2724 -0.4080
  107MOL   C10334235   2.973   4.082   7.961  0.3136  0.8874 -0.7804
  107MOL   C10434236   2.990   4.200   7.888  0.2072 -0.8531  0.4577
  107MOL   C10534237   2.921   4.317   7.927 -0.3127 -0.3791  0.1128
  107MOL   C10634238   2.834   4.563   8.100  0.6666  0.1113 -0.9044
  107MOL   H10734239   2.724   4.407   8.182  1.6469  1.0174  0.4397
  107MOL   H10834240   2.768   4.199   8.211  1.6046 -1.9939  1.2296
  107MOL   H10934241   3.019   3.991   7.926  0.6714  0.1447  1.5611
  107MOL   H11034242   3.047   4.212   7.797 -1.3751  1.7579 -0.2497
  107MOL   H11134243   2.930   4.402   7.861 -0.9778 -0.2634  0.1624
  107MOL   H11234244   2.872   4.598   8.004 -1.8646  1.4360 -1.4906
  107MOL   H11334245   2.763   4.640   8.132  1.7078  0.3866  0.7724
  107MOL   C11434246   2.949   4.558   8.199  0.4834 -0.1467  0.1166
  107MOL   C11534247   3.081   4.509   8.132  0.9236  0.1869 -0.0326
  107MOL   C11634248   3.166   4.434   8.212  0.9659  0.0774  0.2315
  107MOL   C11734249   3.283   4.364   8.172  0.4762 -0.0398 -0.2129
  107MOL  Cl11834250   3.382   4.266   8.283 -0.3993  0.3342 -0.3774
  107MOL   C11934251   3.324   4.395   8.044  0.4402  1.1333 -0.1017
  107MOL   C12034252   3.241   4.474   7.957  0.2328  0.0984 -0.7358
  107MOL   C12134253   3.123   4.536   8.005 -0.3907 -0.1313 -0.9288
  107MOL   C12234254   2.969   4.696   8.267 -0.0467  0.6021  0.6436
  107MOL   H12334255   2.917   4.475   8.262  0.9369  0.2091  0.8181
  107MOL   H12434256   3.127   4.410   8.309  0.2202 -1.1077 -0.3592
  107MOL   H12534257   3.419   4.358   8.009 -0.1131 -0.1259 -0.2966
  107MOL   H12634258   3.268   4.505   7.858 -0.3597  0.8249 -0.6783
  107MOL   H12734259   3.058   4.596   7.942  0.2957 -0.5834 -2.0938
  107MOL   H12834260   3.069   4.681   8.310 -0.0436 -1.7055 -0.0732
  107MOL   H12934261   2.980   4.778   8.196  0.5852  0.8016  0.9606
  107MOL   C13034262   2.877   4.741   8.389 -0.6433 -0.6595  0.9411
  107MOL   C13134263   2.854   4.633   0.054 -0.4556 -0.0658  0.3786
  107MOL   C13234264   2.724   4.606   0.092 -0.0956  0.2193 -0.1953
  107MOL   C13334265   2.693   4.504   0.190  0.1634 -0.2537  0.5677
  107MOL  Cl13434266   2.532   4.481   0.239 -0.2437  0.0194 -0.3906
  107MOL   C13534267   2.799   4.427   0.242  0.4240 -0.2660 -0.1471
  107MOL   C13634268   2.927   4.451   0.188 -0.3475  0.0508 -0.5766
  107MOL   C13734269   2.960   4.555   0.102  0.4420  0.5186  0.2863
  107MOL   C13834270   2.941   4.868   0.014  0.1024 -0.3122 -0.5538
  107MOL   H13934271   2.783   4.766   8.339 -0.4571  1.1182  1.4455
  107MOL   H14034272   2.645   4.664   0.046 -1.1032  0.6910  2.0432
  107MOL   H14134273   2.772   4.342   0.303 -0.3523 -0.0357 -0.1588
  107MOL   H14234274   3.002   4.378   0.218 -0.8630 -1.0056 -1.8248
  107MOL   H14334275   3.059   4.580   0.066  0.1837  1.6881  0.3892
  107MOL   H14434276   3.042   4.839   0.042  0.1183  0.5874  0.3602
  107MOL   H14534277   2.960   4.944   8.373 -2.0916 -0.3379 -1.1468
  107MOL   C14634278   2.862   4.947   0.123 -0.1036  0.3629 -0.4063
  107MOL   C14734279   2.853   4.870   0.255  0.3988  0.7313 -0.9975
  107MOL   C14834280   2.970   4.839   0.324 -0.5702  0.0156 -0.1323
  107MOL   C14934281   2.970   4.753   0.445 -0.8874 -0.0751 -0.2541
  107MOL  Cl15034282   3.119   4.704   0.517 -0.1208  0.2121 -0.7337
  107MOL   C15134283   2.851   4.705   0.486  0.3966  0.4706 -0.5493
  107MOL   C15234284   2.728   4.734   0.421 -0.2324 -0.3699 -0.8941
  107MOL   C15334285   2.729   4.819   0.315  0.1768 -0.6235  0.2182
  107MOL   C15434286   2.920   5.098   0.136 -0.0365 -0.0403 -0.4718
  107MOL   H15534287   2.756   4.956   0.099  0.1163 -0.0742 -1.5344
  107MOL   H15634288   3.063   4.863   0.277  0.0357  1.1387  1.5656
  107MOL   H15734289   2.846   4.639   0.571  0.0004 -0.3030 -1.1755
  107MOL   H15834290   2.633   4.704   0.465  2.0546 -1.0492  3.9536
  107MOL   H15934291   2.638   4.836   0.259  0.1521  2.1173  1.0180
  107MOL   H16034292   3.027   5.079   0.133 -0.0023  0.0356  0.1263
  107MOL   H16134293   2.883   5.148   0.046  0.0280 -0.5397 -0.7738
  107MOL   C16234294   2.897   5.187   0.262  0.0865  0.1943 -0.2919
  107MOL   C16334295   2.997   5.300   0.265 -0.0828  0.0414 -0.2359
  107MOL   C16434296   3.071   5.325   0.384 -0.3296 -0.9865  0.4686
  107MOL   C16534297   3.148   5.440   0.389  0.4479  0.0117 -0.9682
  107MOL  Cl16634298   3.242   5.486   0.529  0.2252 -0.3509 -0.2098
  107MOL   C16734299   3.153   5.525   0.280 -0.2291 -0.0461 -0.0766
  107MOL   C16834300   3.086   5.490   0.157 -0.6177 -0.9891 -0.0411
  107MOL   C16934301   3.001   5.381   0.153 -0.4360  0.1065  0.1057
  107MOL   C17034302   2.744   5.238   0.265 -0.2498 -0.3145 -0.1720
  107MOL   H17134303   2.922   5.114   0.339  0.7123  1.4176  0.6865
  107MOL   H17234304   3.059   5.258   0.468 -0.4065 -1.0263  0.4252
  107MOL   H17334305   3.210   5.617   0.285 -1.1104  0.4388  1.5456
  107MOL   H17434306   3.095   5.553   0.070  1.7972 -1.0598  0.1279
  107MOL   H17534307   2.941   5.353   0.068  2.3472  0.4587 -2.0259
  107MOL   H17634308   2.744   5.347   0.269  0.1452 -0.3570  1.8211
  107MOL   H17734309   2.691   5.229   0.171 -0.5362  1.4971 -0.2107
  107MOL   C17834310   2.662   5.188   0.387 -0.1304  0.0040  0.4635
  107MOL   C17934311   2.731   5.227   0.522  0.1807 -0.1433 -0.4627
  107MOL   C18034312   2.746   5.136   0.625 -0.2036  0.7519 -0.0291
  107MOL   C18134313   2.809   5.173   0.744  0.6342  0.0131  0.0824
  107MOL  Cl18234314   2.826   5.045   0.861  0.3091  0.1535 -0.2139
  107MOL   C18334315   2.863   5.301   0.762  0.0787  0.6709  0.4233
  107MOL   C18434316   2.856   5.389   0.656  0.0239  0.0506 -0.4242
  107MOL   C18534317   2.797   5.352   0.536  0.3118 -0.2903 -0.6157
  107MOL   C18634318   2.526   5.263   0.378 -0.3623  0.5287 -0.1381
  107MOL   H18734319   2.652   5.080   0.382 -0.2559  0.0785 -1.3301
  107MOL   H18834320   2.701   5.039   0.612  1.1216  0.3166 -1.5669
  107MOL   H18934321   2.913   5.323   0.855 -0.8991 -1.8281  1.5643
  107MOL   H19034322   2.895   5.489   0.669  1.0305 -0.4269  0.2659
  107MOL   H19134323   2.795   5.421   0.453  2.0094 -1.1559 -1.3919
  107MOL   H19234324   2.538   5.363   0.419 -0.2768  1.0978 -1.5126
  107MOL   H19334325   2.489   5.262   0.275 -2.0261  1.3498  0.4333
  107MOL   C19434326   2.422   5.188   0.467  0.6442  0.0733 -0.0694
  107MOL   C19534327   2.298   5.279   0.502 -0.1802 -0.5573 -0.2683
  107MOL   C19634328   2.219   5.324   0.392 -0.0637 -0.0661 -0.4866
  107MOL   C19734329   2.106   5.406   0.411  0.5844 -0.4357  1.1035
  107MOL  Cl19834330   2.002   5.438   0.275 -0.0262  0.0127  0.2397
  107MOL   C19934331   2.066   5.435   0.547 -0.1255 -0.4034 -0.1717
  107MOL   C20034332   2.149   5.394   0.654  0.2522 -0.0439  0.0615
  107MOL   C20134333   2.268   5.322   0.630 -0.0092 -0.5232  0.1021
  107MOL   C20234334   2.380   5.050   0.396  0.1534  0.4074 -0.0756
  107MOL   H20334335   2.463   5.169   0.566 -0.0063 -1.8449 -0.1373
  107MOL   H20434336   2.232   5.297   0.288 -2.8518  1.5156 -1.2968
  107MOL   H20534337   1.982   5.500   0.562  0.6389  0.8854 -1.3806
  107MOL   H20634338   2.123   5.427   0.753  2.0717 -1.5914  1.0838
  107MOL   H20734339   2.331   5.302   0.715 -1.1969 -0.5938  0.9689
  107MOL   H20834340   2.365   5.070   0.290 -4.6725 -0.9245  0.2194
  107MOL   H20934341   2.464   4.981   0.395  0.1294  0.3821 -1.0642
  107MOL   C21034342   2.261   4.984   0.454  0.3329  0.7937  0.6432
  107MOL   C21134343   2.202   4.872   0.368 -0.0812 -0.1556  0.2121
  107MOL   C21234344   2.128   4.898   0.252  0.6626  0.2265  0.3359
  107MOL   C21334345   2.087   4.791   0.167  0.5662 -0.2741  0.0309
  107MOL  Cl21434346   1.977   4.819   0.038  0.1775  0.1728  0.3315
  107MOL   C21534347   2.108   4.654   0.203  0.0146 -0.4061 -0.0965
  107MOL   C21634348   2.192   4.627   0.313  0.2596 -0.1408 -0.4362
  107MOL   C21734349   2.241   4.736   0.391  0.0893 -1.0491 -0.1325
  107MOL   C21834350   2.268   4.935   0.604 -0.7091  0.0922 -0.1440
  107MOL   H21934351   2.192   5.067   0.447 -1.5019 -0.7869 -0.6952
  107MOL   H22034352   2.124   5.000   0.219  0.2114 -0.3250 -1.3652
  107MOL   H22134353   2.073   4.573   0.142  1.3259  0.6389 -2.3283
  107MOL   H22234354   2.203   4.523   0.340 -2.9053 -0.7104 -1.1938
  107MOL   H22334355   2.304   4.712   0.476  0.0160 -0.0495  0.2143
  107MOL   H22434356   2.344   4.857   0.610 -0.2765  0.3651 -1.8911
  107MOL   H22534357   2.312   5.019   0.657  1.5674 -0.0744 -1.7304
  107MOL   C22634358   2.143   4.903   0.679  0.3658 -0.2223 -0.3418
  107MOL   C22734359   2.169   4.848   0.820 -0.1784  0.2946  0.3347
  107MOL   C22834360   2.264   4.893   0.913  0.4590  0.3547 -0.3664
  107MOL   C22934361   2.275   4.841   1.049  0.1179 -0.1556 -0.0133
  107MOL  Cl23034362   2.398   4.903   1.154 -0.3489 -0.2337  0.2573
  107MOL   C23134363   2.193   4.722   1.083 -0.1253 -0.6662  0.2845
  107MOL   C23234364   2.106   4.669   0.985  0.1606 -0.3014 -0.3354
  107MOL   C23334365   2.093   4.737   0.858  0.1130 -0.0472 -0.2471
  107MOL   C23434366   2.050   5.019   0.676 -0.3478  0.0813  0.1372
  107MOL   H23534367   2.090   4.816   0.641 -0.8117 -0.0343  0.8259
  107MOL   H23634368   2.311   4.987   0.887  1.1198  0.1990  0.2402
  107MOL   H23734369   2.201   4.668   1.176  1.1061 -2.7703 -1.0051
  107MOL   H23834370   2.043   4.585   1.008  0.0936 -0.4153 -0.9252
  107MOL   H23934371   2.019   4.701   0.788 -0.5920  1.0153 -0.0521
  107MOL   H24034372   2.006   5.031   0.775  1.1960 -2.2711  1.1366
  107MOL   H24134373   2.108   5.111   0.666 -3.7978  2.0948 -2.5141
  107MOL   C24234374   1.932   5.019   0.569 -0.1687 -0.3545 -0.2813
  107MOL   C24334375   1.849   4.889   0.588  0.3941  0.4730 -0.5054
  107MOL   C24434376   1.871   4.792   0.487 -0.3167 -0.3018  0.0624
  107MOL   C24534377   1.809   4.670   0.503  0.6118 -0.1973 -0.0663
  107MOL  Cl24634378   1.826   4.544   0.383 -0.0948  0.2686 -0.0048
  107MOL   C24734379   1.724   4.641   0.615  0.9048  0.4052 -0.5131
  107MOL   C24834380   1.692   4.745   0.702  0.1252  0.5208  0.6556
  107MOL   C24934381   1.757   4.871   0.701  0.1790 -0.2161  0.5843
  107MOL   C25034382   1.859   5.158   0.569 -0.3435 -0.1745 -0.5073
  107MOL   H25134383   1.980   5.015   0.471 -1.6591 -2.7158 -0.9509
  107MOL   H25234384   1.926   4.811   0.396 -1.2082 -1.7465 -0.8099
  107MOL   H25334385   1.671   4.547   0.625  0.5157  0.6337 -0.4271
  107MOL   H25434386   1.620   4.721   0.778  1.8873 -0.1907  2.1523
  107MOL   H25534387   1.753   4.945   0.779  2.8402  1.0594 -0.4322
  107MOL   H25634388   1.856   5.199   0.670 -0.7857  1.9611 -1.3642
  107MOL   H25734389   1.909   5.233   0.508  1.1260  0.2031  1.1300
  107MOL   C25834390   1.717   5.164   0.522 -0.2815 -0.1836  0.4285
  107MOL   C25934391   1.651   5.300   0.543 -0.0113  0.0266  0.3334
  107MOL   C26034392   1.679   5.409   0.460 -0.1111 -0.2949  0.6681
  107MOL   C26134393   1.627   5.536   0.483  0.6269 -0.0813 -0.6029
  107MOL  Cl26234394   1.675   5.669   0.384  0.2473  0.4738  0.0842
  107MOL   C26334395   1.536   5.559   0.586 -0.3903  0.4048 -0.4948
  107MOL   C26434396   1.514   5.455   0.678  1.2356  0.0756  1.3747
  107MOL   C26534397   1.565   5.326   0.655  0.2562 -0.6454 -0.3908
  107MOL   C26634398   1.708   5.110   0.380  0.5119  0.8521  0.6629
  107MOL   H26734399   1.665   5.094   0.587 -1.6949  0.3379 -0.1351
  107MOL   H26834400   1.739   5.401   0.371  1.4479  0.6432  1.6093
  107MOL   H26934401   1.493   5.656   0.604  1.1840  1.1974 -0.9140
  107MOL   H27034402   1.461   5.480   0.768  0.1381  4.5869 -0.4125
  107MOL   H27134403   1.543   5.249   0.727  0.2596  0.4346  0.7861
  107MOL   H27234404   1.740   5.188   0.310  1.4093 -0.4846 -0.4451
  107MOL   H27334405   1.786   5.037   0.362  0.5802  0.8916  0.8062
  107MOL   C27434406   1.573   5.050   0.331  0.4768 -0.1460 -0.9919
  107MOL   C27534407   1.560   5.040   0.179 -0.1755 -0.2276 -0.1165
  107MOL   C27634408   1.464   5.109   0.101 -0.4618 -0.0940 -0.4134
  107MOL   C27734409   1.463   5.096   8.396 -0.1159  0.7066 -0.4873
  107MOL  Cl27834410   1.328   5.155   8.303 -0.0343  0.0830 -0.1407
  107MOL   C27934411   1.561   5.016   8.333 -0.5071  0.4590  0.1234
  107MOL   C28034412   1.650   4.939   8.410 -0.0857 -0.2691  0.5097
  107MOL   C28134413   1.647   4.952   0.115 -0.6845  0.4455  0.2724
  107MOL   C28234414   1.532   4.924   0.412  0.0579 -0.7356 -0.0882
  107MOL   H28334415   1.500   5.118   0.376  0.2584 -0.9092 -0.1713
  107MOL   H28434416   1.384   5.164   0.148  1.2250  3.0392 -1.1117
  107MOL   H28534417   1.578   5.010   8.226 -0.0738 -0.9682  0.2589
  107MOL   H28634418   1.722   4.872   8.367 -0.5209 -0.0539 -0.5630
  107MOL   H28734419   1.722   4.897   0.170 -1.1527 -0.8474 -0.3554
  107MOL   H28834420   1.621   4.862   0.396  0.5106  0.2717 -1.5245
  107MOL   H28934421   1.521   4.952   0.517 -0.4441  1.4379 -0.6900
  107MOL   C29034422   1.401   4.852   0.373 -0.0021 -0.1521 -0.6151
  107MOL   C29134423   1.402   4.705   0.427 -0.4319 -0.4426  0.1215
  107MOL   C29234424   1.463   4.603   0.353 -0.3691  0.0440  0.3546
  107MOL   C29334425   1.467   4.465   0.397  0.1758 -0.6314 -0.4169
  107MOL  Cl29434426   1.554   4.343   0.313 -0.0868 -0.2782 -0.0623
  107MOL   C29534427   1.377   4.430   0.502  0.8903  0.0988 -0.2500
  107MOL   C29634428   1.312   4.526   0.577 -0.4279 -0.0521 -0.0183
  107MOL   C29734429   1.334   4.667   0.544 -0.3927  0.1909  0.1104
  107MOL   C29834430   1.273   4.934   0.409  0.3857  0.3733  0.6111
  107MOL   H29934431   1.407   4.833   0.266 -0.0943 -2.9734 -0.1544
  107MOL   H30034432   1.510   4.620   0.258  1.8074 -1.0731  1.2055
  107MOL   H30134433   1.373   4.325   0.528  0.0277  0.6858  2.1704
  107MOL   H30234434   1.238   4.515   0.655 -0.5071  0.6735  0.0183
  107MOL   H30334435   1.284   4.741   0.604 -0.5935 -0.0417  0.2320
  107MOL   H30434436   1.255   4.963   0.512  0.3312  1.8701  0.1900
  107MOL   H30534437   1.281   5.035   0.369 -1.0707 -0.5692 -2.2447
  107MOL   C30634438   1.146   4.882   0.338 -0.1189  0.2666  0.2191
  107MOL   C30734439   1.017   4.897   0.417 -0.2246 -0.6640 -0.4509
  107MOL   C30834440   0.937   4.783   0.451 -0.0745  0.0406  0.0121
  107MOL   C30934441   0.817   4.792   0.525  0.8463 -0.3240  0.2611
  107MOL  Cl31034442   0.723   4.655   0.555 -0.0667  0.2761  0.5244
  107MOL   C31134443   0.776   4.917   0.576 -0.0653 -0.7988 -0.2526
  107MOL   C31234444   0.863   5.028   0.552 -0.1592  0.3298  0.4033
  107MOL   C31334445   0.972   5.025   0.466 -0.3992  0.1292 -0.6557
  107MOL   C31434446   1.125   4.946   0.197  0.4371 -0.0383 -0.4842
  107MOL   H31534447   1.165   4.775   0.339  0.9174  0.4536  2.5317
  107MOL   H31634448   0.967   4.686   0.414  0.5314  0.3212 -0.2389
  107MOL   H31734449   0.696   4.921   0.648 -1.4728 -1.7370 -1.7107
  107MOL   H31834450   0.839   5.121   0.602  0.0659  0.3545  0.4648
  107MOL   H31934451   1.035   5.112   0.453  1.3097 -1.0955 -0.7051
  107MOL   H32034452   1.217   4.944   0.140 -0.4851 -2.9703 -1.9553
  107MOL   H32134453   1.040   4.899   0.147 -0.7569  0.1379  1.3172
  107MOL   H32234454   1.099   5.050   0.216 -2.4117 -0.7630 -0.0760
  108MOL     C134455   7.258   0.880   2.631 -0.0008  0.4192  0.2063
  108MOL     C234456   7.142   0.930   2.716  1.0349  0.0558 -0.3031
  108MOL     C334457   7.098   1.063   2.726 -0.2809 -0.4508 -0.0184
  108MOL     C434458   6.982   1.093   2.797  0.7254 -0.4613 -0.0689
  108MOL    Cl534459   6.921   1.247   2.816 -0.3352  0.2943 -0.0134
  108MOL     C634460   6.911   0.994   2.864 -0.0015 -0.0343 -0.4231
  108MOL     C734461   6.969   0.869   2.875  0.5897 -0.3143 -0.3003
  108MOL     C834462   7.079   0.832   2.794 -0.4242  0.6155  0.3668
  108MOL     C934463   7.340   0.991   2.560 -0.3154 -0.1140  0.5051
  108MOL    H1034464   7.211   0.810   2.562  1.0258  1.5841 -1.7368
  108MOL    H1134465   7.151   1.146   2.683 -3.6873  1.9587  0.2364
  108MOL    H1234466   6.831   1.025   2.929  0.1756 -1.0714  0.2887
  108MOL    H1334467   6.918   0.792   2.931  0.4121 -0.5867 -0.8305
  108MOL    H1434468   7.121   0.733   2.796 -0.7548  0.3840 -2.3356
  108MOL    H1534469   7.269   1.051   2.502  0.0815 -0.5830 -0.4651
  108MOL    H1634470   7.374   1.059   2.638 -0.9190  0.1458  0.5501
  108MOL    H1734471   7.326   0.823   2.694  0.7686 -0.1143 -1.0860
  108MOL    C1834472   7.444   0.943   2.458  0.7212 -0.5894  0.6255
  108MOL    C1934473   7.385   0.838   2.367 -0.4157 -0.5770  0.3071
  108MOL    C2034474   7.315   0.881   2.249 -0.0122  0.4452 -0.7657
  108MOL    C2134475   7.258   0.785   2.166  0.4426  0.6031 -0.6978
  108MOL   Cl2234476   7.189   0.840   2.011  0.0965 -0.0149  0.2524
  108MOL    C2334477   7.262   0.649   2.204  0.5002 -1.0400  0.1123
  108MOL    C2434478   7.318   0.612   2.325  0.4439 -0.2854 -0.0250
  108MOL    C2534479   7.389   0.704   2.402 -0.4146 -0.5568  0.4161
  108MOL    C2634480   7.501   1.058   2.374 -0.4965 -0.5613 -0.1480
  108MOL    H2734481   7.518   0.903   2.527 -1.4598 -2.6396  1.8336
  108MOL    H2834482   7.308   0.985   2.218  0.0249  0.7383  0.1833
  108MOL    H2934483   7.209   0.579   2.140 -0.0069 -0.4763 -0.0898
  108MOL    H3034484   7.316   0.507   2.350 -0.7626 -0.8277 -2.3176
  108MOL    H3134485   7.433   0.675   2.496  4.2339 -1.8940 -2.0119
  108MOL    H3234486   7.538   1.018   2.279  1.9708 -0.4606  0.7309
  108MOL    H3334487   7.431   1.138   2.351  1.6885  1.1171 -1.2109
  108MOL    C3434488   7.628   1.132   2.434  0.9851 -0.5610 -0.5272
  108MOL    C3534489   7.745   1.029   2.436 -0.1259 -0.2585 -0.3678
  108MOL    C3634490   7.785   0.963   2.551  0.1297  0.4985 -0.8376
  108MOL    C3734491   7.892   0.880   2.544  0.6189 -0.1763 -0.0400
  108MOL   Cl3834492   7.940   0.808   2.697  0.1920  0.1931  0.3044
  108MOL    C3934493   7.961   0.848   2.429 -0.4503  0.1163 -0.1846
  108MOL    C4034494   7.920   0.917   2.317 -0.2200 -0.1030  0.4828
  108MOL    C4134495   7.815   1.008   2.317  0.1514  0.2275  0.1596
  108MOL    C4234496   7.664   1.260   2.356  0.0616 -0.3518  0.8825
  108MOL    H4334497   7.603   1.154   2.538 -2.4633 -3.8848 -0.5265
  108MOL    H4434498   7.738   0.974   2.648 -2.8994 -0.0299 -2.1830
  108MOL    H4534499   8.038   0.772   2.430 -0.5347  0.0226 -1.0770
  108MOL    H4634500   7.964   0.891   2.222  2.2340 -0.3775  1.6360
  108MOL    H4734501   7.780   1.056   2.227  0.8325  0.5011  0.0370
  108MOL    H4834502   7.649   1.238   2.251  0.8037 -0.4112  0.7852
  108MOL    H4934503   7.578   1.325   2.373  1.4666  1.3806  1.5032
  108MOL    C5034504   7.800   1.322   2.376  0.2491  0.4210  0.3346
  108MOL    C5134505   7.867   1.372   2.248 -0.6622  0.1019 -0.3734
  108MOL    C5234506   7.794   1.437   2.151  0.5486 -0.0562  0.7137
  108MOL    C5334507   7.852   1.484   2.032  0.3012  0.0177  0.2512
  108MOL   Cl5434508   7.752   1.568   1.914 -0.2562  0.1067  0.1777
  108MOL    C5534509   7.989   1.476   2.020  0.2343 -0.1109 -0.1212
  108MOL    C5634510   8.069   1.405   2.116  0.4214 -0.7597  0.1503
  108MOL    C5734511   8.006   1.361   2.239 -0.3893  0.4166  0.5273
  108MOL    C5834512   7.789   1.450   2.458  0.5226  0.0505  0.5504
  108MOL    H5934513   7.863   1.248   2.426 -1.7712 -0.5253  1.5803
  108MOL    H6034514   7.688   1.454   2.160  0.2669 -0.4693 -1.7110
  108MOL    H6134515   8.032   1.521   1.932  0.9345  2.8638  1.6959
  108MOL    H6234516   8.176   1.391   2.109  0.1728 -0.9885 -4.2742
  108MOL    H6334517   8.066   1.308   2.311  0.4590  1.2186  0.4261
  108MOL    H6434518   7.855   1.530   2.425 -0.7748  0.4576 -1.1674
  108MOL    H6534519   7.695   1.496   2.426  1.3359  0.8087 -0.8227
  108MOL    C6634520   7.795   1.430   2.606 -0.1579 -0.4724  0.4576
  108MOL    C6734521   7.918   1.357   2.643  0.2296 -0.5773  0.0662
  108MOL    C6834522   8.037   1.407   2.592 -0.3814  0.0863  0.4746
  108MOL    C6934523   8.154   1.331   2.616 -0.5001 -0.8958 -0.3405
  108MOL   Cl7034524   8.297   1.359   2.526 -0.2377 -0.1889 -0.2462
  108MOL    C7134525   8.153   1.217   2.696 -0.5397 -0.5129 -0.2633
  108MOL    C7234526   8.026   1.166   2.746 -0.2229  0.2116  0.7401
  108MOL    C7334527   7.915   1.248   2.727 -0.0542  0.5692  0.3085
  108MOL    C7434528   7.775   1.564   2.692 -0.0321 -0.1673 -0.6735
  108MOL    H7534529   7.715   1.359   2.626  0.8078 -1.4012  1.0644
  108MOL    H7634530   8.043   1.487   2.521  0.7251  0.2684  0.7666
  108MOL    H7734531   8.241   1.154   2.690  1.5380  1.9516  2.8077
  108MOL    H7834532   8.026   1.079   2.810 -0.0130 -0.2670  0.0946
  108MOL    H7934533   7.825   1.202   2.765 -1.4223  1.3119 -1.9561
  108MOL    H8034534   7.788   1.538   2.797 -1.2818  2.0494  0.0801
  108MOL    H8134535   7.847   1.639   2.661  1.0416 -2.2177 -3.2566
  108MOL    C8234536   7.636   1.630   2.687 -0.2445  0.3778  0.3401
  108MOL    C8334537   7.520   1.543   2.730 -0.1846  0.2313 -0.6509
  108MOL    C8434538   7.490   1.531   2.872 -0.0577 -0.4300 -0.0065
  108MOL    C8534539   7.378   1.464   2.917  0.3006  0.3601 -0.7308
  108MOL   Cl8634540   7.337   1.460   3.090  0.3236  0.2715  0.0321
  108MOL    C8734541   7.296   1.399   2.820 -0.5440  0.2201  0.0411
  108MOL    C8834542   7.340   1.386   2.691  0.4279  0.3583 -0.6777
  108MOL    C8934543   7.455   1.459   2.639  0.4273 -0.1909  0.1976
  108MOL    C9034544   7.639   1.761   2.770  0.8316  0.7192 -0.3655
  108MOL    H9134545   7.612   1.661   2.586  0.3295 -1.0297 -0.2347
  108MOL    H9234546   7.563   1.577   2.937 -0.6801  2.3851 -1.2124
  108MOL    H9334547   7.211   1.346   2.860  0.0931 -1.4173 -0.7236
  108MOL    H9434548   7.286   1.322   2.622  1.0388  0.3192 -1.1206
  108MOL    H9534549   7.485   1.455   2.536  1.3795 -1.1267  0.5079
  108MOL    H9634550   7.686   1.741   2.866  0.3388 -0.6472 -0.4054
  108MOL    H9734551   7.703   1.835   2.721 -0.5522  2.0917 -0.1594
  108MOL    C9834552   7.505   1.844   2.802  0.5922 -0.5295 -0.1801
  108MOL    C9934553   7.529   1.957   2.914  0.4252  0.2802  0.5683
  108MOL   C10034554   7.449   1.954   3.030 -0.4389  0.1383 -0.1493
  108MOL   C10134555   7.466   2.053   3.130  0.5618 -0.3424 -0.8301
  108MOL  Cl10234556   7.358   2.046   3.267  0.0339 -0.0070  0.1961
  108MOL   C10334557   7.553   2.157   3.113  0.6294  0.2445  0.2741
  108MOL   C10434558   7.622   2.162   2.994  0.4827 -0.1173 -0.2383
  108MOL   C10534559   7.617   2.063   2.896 -0.3876 -0.1601  0.0746
  108MOL   C10634560   7.447   1.899   2.666 -1.2797 -0.1412  0.1185
  108MOL   H10734561   7.426   1.781   2.843  0.7747 -1.1742 -0.8131
  108MOL   H10834562   7.376   1.876   3.038 -0.3661  0.1017  0.1662
  108MOL   H10934563   7.580   2.229   3.188 -0.4050  0.2975  0.5966
  108MOL   H11034564   7.681   2.253   2.996  0.6598 -0.2489  0.7268
  108MOL   H11134565   7.690   2.079   2.818 -0.3012  1.5004  0.4780
  108MOL   H11234566   7.489   1.999   2.659  1.2917 -1.1657  0.0870
  108MOL   H11334567   7.487   1.842   2.582  1.4494  3.1118 -0.9134
  108MOL   C11434568   7.292   1.907   2.653  0.6748 -0.0106  0.5420
  108MOL   C11534569   7.211   1.923   2.781 -0.1932 -0.6848 -0.0127
  108MOL   C11634570   7.169   1.812   2.860 -0.2674  0.1505 -1.1804
  108MOL   C11734571   7.103   1.834   2.984  0.2917  0.5376  0.0701
  108MOL  Cl11834572   7.052   1.711   3.092  0.2006  0.1438  0.2236
  108MOL   C11934573   7.067   1.966   3.017 -0.3391 -0.4035 -1.0368
  108MOL   C12034574   7.105   2.073   2.936 -0.2668 -0.2603 -1.1270
  108MOL   C12134575   7.179   2.055   2.819  0.2243 -0.3055 -0.6546
  108MOL   C12234576   7.245   1.995   2.539 -0.1219 -0.2416  0.7575
  108MOL   H12334577   7.268   1.805   2.624 -1.8874  0.2372  1.6919
  108MOL   H12434578   7.204   1.714   2.830  0.2303 -0.0080 -0.1148
  108MOL   H12534579   7.004   1.988   3.101  0.9836 -1.6377  0.2913
  108MOL   H12634580   7.089   2.176   2.965  0.5552 -0.4313 -0.0209
  108MOL   H12734581   7.228   2.137   2.769  1.2472 -0.2372  0.4507
  108MOL   H12834582   7.257   2.101   2.561 -2.1663 -0.1235  1.3411
  108MOL   H12934583   7.308   1.978   2.451 -0.0473  0.2108  0.7215
  108MOL   C13034584   7.102   1.964   2.489 -0.9084 -0.5164  0.1989
  108MOL   C13134585   7.026   2.096   2.464  0.0891  1.0410 -0.7334
  108MOL   C13234586   6.932   2.142   2.553  0.2587 -0.1462 -0.9060
  108MOL   C13334587   6.866   2.267   2.533 -0.8348 -0.5285 -0.3002
  108MOL  Cl13434588   6.721   2.312   2.623 -0.1903  0.3550 -0.1455
  108MOL   C13534589   6.896   2.342   2.418  0.5586  0.4295 -0.1117
  108MOL   C13634590   6.990   2.295   2.322 -0.4223  0.0648  0.2077
  108MOL   C13734591   7.060   2.171   2.346  0.1333 -0.2311  0.2045
  108MOL   C13834592   7.106   1.872   2.363 -0.0911  0.8391 -0.1734
  108MOL   H13934593   7.052   1.920   2.575 -2.2884 -0.0981 -0.3659
  108MOL   H14034594   6.910   2.080   2.638  0.4992 -0.0930 -0.8045
  108MOL   H14134595   6.844   2.436   2.412 -0.4898 -0.1515 -0.2679
  108MOL   H14234596   7.006   2.360   2.238 -1.4608  1.0809  0.7804
  108MOL   H14334597   7.141   2.138   2.282  0.4569 -0.6223  0.8183
  108MOL   H14434598   7.012   1.883   2.309  0.4688  0.3585 -1.2640
  108MOL   H14534599   7.182   1.908   2.294  0.2800 -0.2620 -0.3552
  108MOL   C14634600   7.108   1.718   2.375 -1.3091 -0.0749  0.6929
  108MOL   C14734601   7.016   1.667   2.482  0.5118 -0.9909  0.1755
  108MOL   C14834602   6.881   1.709   2.476 -0.0590  0.1049  0.1059
  108MOL   C14934603   6.801   1.680   2.581 -0.3568 -0.1842  0.2090
  108MOL  Cl15034604   6.644   1.748   2.580  0.0222  0.1547  0.2292
  108MOL   C15134605   6.838   1.596   2.690 -0.1818  0.6389  0.2601
  108MOL   C15234606   6.976   1.564   2.699 -0.4374  0.2868 -0.4322
  108MOL   C15334607   7.060   1.598   2.600  0.0405 -0.6532 -0.1889
  108MOL   C15434608   7.078   1.644   2.237 -0.2053 -0.3246  0.2057
  108MOL   H15534609   7.212   1.699   2.399 -1.1818 -1.1653 -0.6454
  108MOL   H15634610   6.849   1.760   2.386  0.1336  0.2508  0.1197
  108MOL   H15734611   6.761   1.568   2.760 -1.1714 -0.7389 -1.3454
  108MOL   H15834612   7.019   1.527   2.791 -2.1679 -0.8701 -0.0803
  108MOL   H15934613   7.167   1.583   2.610  0.4574  1.9068 -0.3851
  108MOL   H16034614   7.098   1.539   2.260 -0.0131 -0.3225  0.0433
  108MOL   H16134615   6.971   1.630   2.224  0.0683 -3.0386  0.5840
  108MOL   C16234616   7.146   1.694   2.111 -1.1734 -0.3498 -0.0626
  108MOL   C16334617   7.301   1.708   2.137  0.0435 -0.0220 -0.0414
  108MOL   C16434618   7.379   1.819   2.095 -0.2490 -0.3490  0.1576
  108MOL   C16534619   7.516   1.822   2.127  0.1454 -0.2794  0.0636
  108MOL  Cl16634620   7.603   1.973   2.095 -0.7245  0.0942 -0.0138
  108MOL   C16734621   7.582   1.722   2.200  0.7662  0.0303  0.1599
  108MOL   C16834622   7.503   1.613   2.241  0.5420 -0.4254  0.4522
  108MOL   C16934623   7.371   1.602   2.197 -0.4576 -0.5362  0.1697
  108MOL   C17034624   7.109   1.600   1.991 -0.4278  1.0091 -0.0500
  108MOL   H17134625   7.094   1.788   2.096 -3.3291 -1.1104  2.2630
  108MOL   H17234626   7.326   1.904   2.056  0.4352 -0.3356 -0.7606
  108MOL   H17334627   7.689   1.728   2.217  0.8339 -0.4263 -0.0965
  108MOL   H17434628   7.547   1.533   2.299  1.4769 -0.6960 -0.6239
  108MOL   H17534629   7.313   1.516   2.225  0.3613 -0.4063  2.2978
  108MOL   H17634630   7.200   1.553   1.953 -0.8124  1.2267 -1.2548
  108MOL   H17734631   7.054   1.515   2.032  0.4663  0.0761 -0.7442
  108MOL   C17834632   7.042   1.660   1.870 -0.3420  0.7217  0.1610
  108MOL   C17934633   7.115   1.786   1.813  0.0285  0.6875  0.3955
  108MOL   C18034634   7.255   1.788   1.797  0.6383 -0.3232  0.0370
  108MOL   C18134635   7.326   1.901   1.760  0.1697 -0.1886  1.0469
  108MOL  Cl18234636   7.496   1.886   1.738 -0.5041 -0.0822  0.0977
  108MOL   C18334637   7.256   2.024   1.736 -0.2357 -0.0191  0.2391
  108MOL   C18434638   7.116   2.021   1.752 -0.4504 -0.6468  0.4451
  108MOL   C18534639   7.041   1.903   1.774 -0.1378  0.5184  0.8263
  108MOL   C18634640   7.019   1.550   1.766 -0.1729 -0.0045  0.2446
  108MOL   H18734641   6.950   1.700   1.911  0.1532  3.1280 -0.9644
  108MOL   H18834642   7.318   1.701   1.812  0.5628  0.0336  2.7814
  108MOL   H18934643   7.312   2.111   1.706 -1.6759  0.1964 -1.9370
  108MOL   H19034644   7.065   2.114   1.729  2.8489  1.0562 -0.2747
  108MOL   H19134645   6.934   1.912   1.782 -0.3418  0.0915 -1.1309
  108MOL   H19234646   7.031   1.603   1.671  1.1349  0.0647  0.4351
  108MOL   H19334647   7.105   1.484   1.757  1.1055  1.7700 -0.9514
  108MOL   C19434648   6.893   1.459   1.758  0.5589 -0.7124 -0.4541
  108MOL   C19534649   6.760   1.542   1.769 -0.2753 -0.5902 -0.1909
  108MOL   C19634650   6.747   1.664   1.697  0.7192 -0.2463  0.3817
  108MOL   C19734651   6.637   1.754   1.723  0.1315  0.1033  0.1113
  108MOL  Cl19834652   6.629   1.915   1.655  0.0423  0.4421 -0.3149
  108MOL   C19934653   6.532   1.711   1.807 -0.4938  0.5896  0.0114
  108MOL   C20034654   6.547   1.589   1.876 -0.0651  0.0356 -0.8023
  108MOL   C20134655   6.658   1.505   1.862  0.4254  0.3303  0.4101
  108MOL   C20234656   6.892   1.357   1.634 -0.0061 -0.1170 -0.5446
  108MOL   H20334657   6.889   1.398   1.848  0.8721  1.0660  0.7922
  108MOL   H20434658   6.811   1.691   1.614 -2.2409 -0.7741 -2.2100
  108MOL   H20534659   6.447   1.773   1.830 -0.6257 -0.1849  1.6440
  108MOL   H20634660   6.473   1.558   1.948 -0.0790  0.6905 -0.5223
  108MOL   H20734661   6.682   1.421   1.925 -1.2298 -2.0576 -2.0564
  108MOL   H20834662   6.794   1.343   1.589 -1.1264  0.3797  1.6707
  108MOL   H20934663   6.944   1.402   1.550 -0.5768  0.4731 -0.5872
  108MOL   C21034664   6.958   1.221   1.674 -0.0731 -0.0301  0.5544
  108MOL   C21134665   6.877   1.143   1.779 -0.2823  0.2659 -0.7244
  108MOL   C21234666   6.917   1.135   1.912 -0.0087 -0.4841 -0.3517
  108MOL   C21334667   6.838   1.069   2.007  0.9764  0.3289  0.7650
  108MOL  Cl21434668   6.887   1.058   2.170 -0.2179 -0.1491  0.0805
  108MOL   C21534669   6.702   1.030   1.976  0.3049 -0.7736  0.8311
  108MOL   C21634670   6.660   1.038   1.841 -0.1931  0.0206 -0.2041
  108MOL   C21734671   6.747   1.100   1.745 -0.2107 -0.0540 -0.3337
  108MOL   C21834672   6.990   1.127   1.557  0.2797 -0.1694 -0.4992
  108MOL   H21934673   7.052   1.239   1.726  0.3760  2.7653 -1.1409
  108MOL   H22034674   7.020   1.153   1.939 -0.1407 -0.8764  0.4260
  108MOL   H22134675   6.629   1.000   2.050 -1.6010 -0.3029 -0.8217
  108MOL   H22234676   6.557   1.018   1.818  0.1215 -0.8035 -0.8915
  108MOL   H22334677   6.710   1.109   1.644 -2.4612 -0.1043  0.4453
  108MOL   H22434678   6.898   1.107   1.502 -1.2163 -1.2708  2.3107
  108MOL   H22534679   7.054   1.191   1.496 -0.2301 -2.2473 -3.3169
  108MOL   C22634680   7.036   0.980   1.596 -0.4372  0.2390 -0.3797
  108MOL   C22734681   7.033   0.877   1.484 -0.3895 -0.0092 -0.5344
  108MOL   C22834682   7.018   0.908   1.353 -0.0864 -0.9037  0.1715
  108MOL   C22934683   7.023   0.808   1.255 -0.6612  0.5394 -0.9334
  108MOL  Cl23034684   7.003   0.850   1.090  0.0929  0.0509  0.0963
  108MOL   C23134685   7.029   0.675   1.292 -0.4241 -0.3241 -0.1642
  108MOL   C23234686   7.026   0.638   1.426 -0.6185 -0.5394 -0.6717
  108MOL   C23334687   7.034   0.740   1.524  0.6053 -0.6199  0.6272
  108MOL   C23434688   7.173   0.983   1.672  0.1963  0.0802 -0.3838
  108MOL   H23534689   6.968   0.945   1.673  1.4766  1.4042  1.9175
  108MOL   H23634690   7.010   1.010   1.318  1.4460 -0.4780  1.0302
  108MOL   H23734691   7.039   0.592   1.223  1.0931 -0.1650 -0.1502
  108MOL   H23834692   7.029   0.533   1.453 -1.0094 -0.5269 -0.5755
  108MOL   H23934693   7.035   0.714   1.628  2.0368  0.3043  0.8599
  108MOL   H24034694   7.150   1.042   1.761 -0.5617  1.3831 -1.4341
  108MOL   H24134695   7.195   0.882   1.707  1.7286  0.6495  0.3518
  108MOL   C24234696   7.297   1.054   1.609  0.4240 -0.1704  0.6474
  108MOL   C24334697   7.352   1.171   1.693  0.2284 -0.2704 -1.0646
  108MOL   C24434698   7.392   1.146   1.827 -0.2120  0.1603  0.4999
  108MOL   C24534699   7.418   1.259   1.905  0.5356 -1.0032 -0.0254
  108MOL  Cl24634700   7.468   1.236   2.075  0.1085  0.0432 -0.3315
  108MOL   C24734701   7.417   1.391   1.849  0.6633  0.3990 -0.2416
  108MOL   C24834702   7.380   1.415   1.713 -0.1342 -0.4622  0.6897
  108MOL   C24934703   7.351   1.302   1.643  0.6704 -0.3814 -0.4930
  108MOL   C25034704   7.413   0.948   1.594 -0.4361 -0.0891 -0.3457
  108MOL   H25134705   7.278   1.072   1.503  0.7641  1.0210  0.7894
  108MOL   H25234706   7.404   1.051   1.877 -0.8754 -0.5143 -0.6158
  108MOL   H25334707   7.434   1.472   1.918  0.3641 -0.4826  0.8756
  108MOL   H25434708   7.376   1.517   1.677  2.6053  0.0173  1.6050
  108MOL   H25534709   7.329   1.317   1.538  2.0389  2.6062 -0.3877
  108MOL   H25634710   7.446   0.907   1.690 -2.3360  0.4272  0.5548
  108MOL   H25734711   7.389   0.858   1.538 -0.4268  0.9187 -1.9964
  108MOL   C25834712   7.539   1.004   1.531  0.3429 -0.4463  0.4107
  108MOL   C25934713   7.634   1.076   1.620  0.1898  0.3996 -0.0939
  108MOL   C26034714   7.665   1.206   1.574  0.0929  0.6061 -0.1779
  108MOL   C26134715   7.761   1.284   1.635 -0.7053  0.3768 -0.5305
  108MOL  Cl26234716   7.813   1.438   1.571 -0.2163 -0.4982 -0.0284
  108MOL   C26334717   7.835   1.233   1.742  0.4274 -0.1422 -0.1459
  108MOL   C26434718   7.799   1.105   1.794  0.6220  0.9152 -0.4277
  108MOL   C26534719   7.701   1.025   1.732 -0.1526  0.4132  0.0995
  108MOL   C26634720   7.619   0.917   1.433 -0.5230  0.1418  0.4392
  108MOL   H26734721   7.490   1.081   1.471 -1.6679 -1.9505  0.0572
  108MOL   H26834722   7.626   1.245   1.481  1.4408 -0.8177 -1.3584
  108MOL   H26934723   7.915   1.288   1.789 -1.7777  2.6416  0.4717
  108MOL   H27034724   7.852   1.066   1.880  1.4980  1.4518 -0.7167
  108MOL   H27134725   7.689   0.928   1.776  0.2602  0.5202  0.4478
  108MOL   H27234726   7.717   0.964   1.443 -0.8961  0.8755  0.6800
  108MOL   H27334727   7.638   0.823   1.485 -0.6005 -0.1771 -0.1066
  108MOL   C27434728   7.575   0.906   1.290  0.2068  0.2050 -0.2906
  108MOL   C27534729   7.515   1.040   1.236  0.0086  0.3469  0.0174
  108MOL   C27634730   7.377   1.049   1.200  0.2137 -0.0534  0.4170
  108MOL   C27734731   7.328   1.175   1.165  0.4102  0.0709  0.5913
  108MOL  Cl27834732   7.161   1.184   1.134 -0.0644  0.0459 -0.4547
  108MOL   C27934733   7.413   1.286   1.164 -0.6893  0.3688  1.2420
  108MOL   C28034734   7.553   1.273   1.187  0.5701 -0.5597 -0.3057
  108MOL   C28134735   7.606   1.145   1.219  0.5589 -0.1010 -0.2991
  108MOL   C28234736   7.676   0.829   1.202  0.4474 -0.6625 -0.5288
  108MOL   H28334737   7.487   0.842   1.298  0.6646 -0.7854 -2.7135
  108MOL   H28434738   7.314   0.961   1.201 -1.4478  1.1070  0.3389
  108MOL   H28534739   7.380   1.384   1.132  1.1591  1.0762  1.4347
  108MOL   H28634740   7.621   1.356   1.192  2.1236 -1.8758  1.2496
  108MOL   H28734741   7.705   1.135   1.260  1.5054  4.5507 -1.1374
  108MOL   H28834742   7.759   0.900   1.203 -0.6474  0.6331 -1.2635
  108MOL   H28934743   7.713   0.745   1.262 -0.1034 -0.2860  0.3359
  108MOL   C29034744   7.618   0.776   1.070 -0.3218 -0.0663  0.0105
  108MOL   C29134745   7.736   0.776   0.979  0.0380 -0.1451  0.0771
  108MOL   C29234746   7.801   0.651   0.941 -0.2757  0.4369  0.1393
  108MOL   C29334747   7.904   0.649   0.844 -0.4117 -0.0363  0.0661
  108MOL  Cl29434748   7.963   0.500   0.791  0.3167  0.1274  0.0629
  108MOL   C29534749   7.956   0.772   0.809  0.1779 -0.1997 -0.0567
  108MOL   C29634750   7.907   0.899   0.849  0.0003 -0.5622  0.4575
  108MOL   C29734751   7.792   0.903   0.934 -0.2579 -0.7981  0.4681
  108MOL   C29834752   7.538   0.640   1.091  0.0333 -0.0289  0.6278
  108MOL   H29934753   7.550   0.856   1.043  0.0839  0.0581 -0.6487
  108MOL   H30034754   7.762   0.556   0.971  2.7145 -2.3403 -4.0962
  108MOL   H30134755   8.044   0.773   0.747 -0.0074 -4.8112 -0.5709
  108MOL   H30234756   7.962   0.986   0.815  0.7255 -0.7908  1.0182
  108MOL   H30334757   7.747   0.996   0.967  0.0863 -0.2612 -0.5482
  108MOL   H30434758   7.608   0.558   1.112  0.1806 -0.0320  0.1530
  108MOL   H30534759   7.475   0.653   1.178 -0.5651 -2.8207  0.6675
  108MOL   C30634760   7.445   0.609   0.974  0.7801 -0.1735  0.3522
  108MOL   C30734761   7.410   0.463   0.959  0.6503 -0.1787 -0.5721
  108MOL   C30834762   7.450   0.387   0.847  0.8732 -0.1224  0.1959
  108MOL   C30934763   7.400   0.259   0.834  0.7133  0.1858 -0.2742
  108MOL  Cl31034764   7.447   0.174   0.687  0.3180 -0.1260 -0.2216
  108MOL   C31134765   7.326   0.198   0.929  0.1666 -0.0532 -0.4667
  108MOL   C31234766   7.296   0.274   1.039 -0.1245  0.3047 -0.0928
  108MOL   C31334767   7.336   0.408   1.057  0.5075 -0.4619 -0.1069
  108MOL   C31434768   7.322   0.699   0.973 -0.0061 -0.0278 -0.7501
  108MOL   H31534769   7.508   0.627   0.887  2.4767 -0.0986  1.5617
  108MOL   H31634770   7.518   0.420   0.770 -1.0705 -1.2769 -2.0854
  108MOL   H31734771   7.286   0.097   0.926 -1.3808  0.5582 -0.5875
  108MOL   H31834772   7.240   0.231   1.120  0.3010 -0.1714 -0.0497
  108MOL   H31934773   7.314   0.452   1.153 -1.3379 -0.6298 -0.4438
  108MOL   H32034774   7.248   0.672   1.049  0.8069  0.3379  0.1707
  108MOL   H32134775   7.359   0.799   0.995  0.8650 -0.2392 -1.2182
  108MOL   H32234776   7.267   0.702   0.878  0.1423 -0.9287 -0.8701
  109MOL     C134777   3.591   1.719   4.174 -0.7167 -0.5789  0.0707
  109MOL     C234778   3.594   1.625   4.053 -0.3210 -0.3063 -0.0515
  109MOL     C334779   3.479   1.595   3.974 -0.5822 -0.0160 -0.4190
  109MOL     C434780   3.490   1.508   3.865  0.2509 -0.4974  0.3484
  109MOL    Cl534781   3.353   1.476   3.769  0.2024 -0.2739  0.2626
  109MOL     C634782   3.611   1.441   3.831 -0.4986 -0.1560  0.0431
  109MOL     C734783   3.725   1.472   3.907  0.6771  0.1816 -0.2497
  109MOL     C834784   3.717   1.557   4.021  0.2165 -0.0597 -0.7503
  109MOL     C934785   3.651   1.849   4.131 -0.1315  0.1741  0.0369
  109MOL    H1034786   3.633   1.673   4.263  0.2429  0.5334  0.2031
  109MOL    H1134787   3.386   1.649   3.985 -0.8770 -0.1722 -2.0352
  109MOL    H1234788   3.623   1.378   3.744 -0.2334  1.2026 -0.9303
  109MOL    H1334789   3.817   1.424   3.879  1.8981 -0.1629  3.9533
  109MOL    H1434790   3.807   1.564   4.081  0.5951  0.0328 -1.3327
  109MOL    H1534791   3.759   1.831   4.131 -0.1828 -0.1504 -1.4635
  109MOL    H1634792   3.639   1.877   4.027  1.4177  2.0359  0.3296
  109MOL    H1734793   3.485   1.727   4.197 -0.7424  0.6309 -0.4180
  109MOL    C1834794   3.633   1.973   4.210 -0.8144 -0.1223 -0.0730
  109MOL    C1934795   3.661   1.941   4.356  0.5724 -0.6121 -0.4405
  109MOL    C2034796   3.559   1.931   4.456  0.2795  0.6171  0.1066
  109MOL    C2134797   3.588   1.909   4.593  1.1196 -0.0564  0.1532
  109MOL   Cl2234798   3.457   1.907   4.711  0.1220 -0.3839  0.0097
  109MOL    C2334799   3.724   1.902   4.629 -0.8623 -0.2749  0.1705
  109MOL    C2434800   3.825   1.909   4.534 -0.0216 -0.1425  0.2367
  109MOL    C2534801   3.794   1.932   4.398 -0.1843 -0.9369  0.2336
  109MOL    C2634802   3.707   2.091   4.149 -0.1214  0.1336  0.4975
  109MOL    H2734803   3.529   2.003   4.192 -0.5047 -0.1111 -1.9594
  109MOL    H2834804   3.454   1.935   4.432 -0.0056 -0.6708  1.1257
  109MOL    H2934805   3.745   1.878   4.733 -0.8183 -0.5186  0.1057
  109MOL    H3034806   3.929   1.907   4.564  0.7387 -1.8812 -2.3844
  109MOL    H3134807   3.872   1.954   4.326  1.1394  0.9492  2.1700
  109MOL    H3234808   3.811   2.061   4.133 -0.7620 -0.6639 -2.5612
  109MOL    H3334809   3.669   2.118   4.050  1.2315  0.7333  0.1344
  109MOL    C3434810   3.719   2.217   4.236 -0.6163 -0.0745  0.0475
  109MOL    C3534811   3.820   2.314   4.176 -0.1932  0.6121 -0.1694
  109MOL    C3634812   3.802   2.364   4.049  0.1820  0.2035  0.0195
  109MOL    C3734813   3.895   2.450   3.989  0.4210 -0.3546 -0.1649
  109MOL   Cl3834814   3.858   2.505   3.824 -0.0566  0.2947 -0.0111
  109MOL    C3934815   4.016   2.483   4.052 -0.1151  0.4605 -0.4200
  109MOL    C4034816   4.034   2.434   4.187 -0.3944  0.2018  0.4835
  109MOL    C4134817   3.936   2.355   4.245 -0.5971 -0.2217 -0.2318
  109MOL    C4234818   3.581   2.289   4.273 -0.0225 -0.0058 -0.1970
  109MOL    H4334819   3.773   2.185   4.325  0.5706  0.2487 -0.5514
  109MOL    H4434820   3.719   2.334   3.986 -0.4348  1.6013  0.1381
  109MOL    H4534821   4.094   2.540   4.003 -0.2235  1.8149  0.9428
  109MOL    H4634822   4.121   2.463   4.244  0.0894  1.5712 -0.9383
  109MOL    H4734823   3.956   2.331   4.348  0.9767  4.4693  0.6697
  109MOL    H4834824   3.557   2.378   4.215  1.0072  2.4910  3.0551
  109MOL    H4934825   3.502   2.218   4.248 -1.6888  1.6239  0.3782
  109MOL    C5034826   3.554   2.325   4.426 -0.6285 -0.7987 -0.4678
  109MOL    C5134827   3.672   2.387   4.501 -0.5177  0.1573 -0.2157
  109MOL    C5234828   3.733   2.312   4.601  1.1093  0.5869 -0.4498
  109MOL    C5334829   3.850   2.355   4.671 -0.1126  0.4900 -0.4361
  109MOL   Cl5434830   3.915   2.266   4.805 -0.4299 -0.3609 -0.7508
  109MOL    C5534831   3.900   2.479   4.641  0.5223  0.4257 -0.1878
  109MOL    C5634832   3.840   2.560   4.541  0.1580 -0.7027 -0.8188
  109MOL    C5734833   3.734   2.511   4.465  0.1574  0.0710  0.2858
  109MOL    C5834834   3.439   2.427   4.436 -0.4887  0.2285  0.5518
  109MOL    H5934835   3.535   2.230   4.476  0.9069 -0.5349  0.6232
  109MOL    H6034836   3.681   2.222   4.632  3.5988 -1.5749 -2.2962
  109MOL    H6134837   3.985   2.516   4.697 -0.9384 -1.1129  3.1758
  109MOL    H6234838   3.886   2.646   4.495  2.9299  0.2592  3.4680
  109MOL    H6334839   3.696   2.572   4.385  3.0811 -0.3375 -1.4778
  109MOL    H6434840   3.455   2.505   4.362  0.4270 -1.7792 -1.3837
  109MOL    H6534841   3.352   2.372   4.399 -0.0411 -1.3398  1.7860
  109MOL    C6634842   3.385   2.488   4.566  0.0828  0.3343 -0.0860
  109MOL    C6734843   3.287   2.601   4.533 -0.1772 -0.2606  0.1999
  109MOL    C6834844   3.158   2.568   4.492 -1.0423 -0.6056 -0.1727
  109MOL    C6934845   3.072   2.675   4.457  0.5964 -0.2440  0.2112
  109MOL   Cl7034846   2.911   2.628   4.406  0.4088 -0.3464  0.0201
  109MOL    C7134847   3.105   2.811   4.463  0.1918  0.0551  0.6508
  109MOL    C7234848   3.232   2.832   4.504  0.1125 -0.2858 -0.1252
  109MOL    C7334849   3.323   2.734   4.540 -0.1132 -0.0694 -0.3102
  109MOL    C7434850   3.324   2.374   4.660  0.6565 -0.0169  0.1882
  109MOL    H7534851   3.465   2.543   4.616  0.1684 -0.9639  1.2302
  109MOL    H7634852   3.119   2.468   4.479 -1.8436 -0.3939  0.5339
  109MOL    H7734853   3.030   2.884   4.436  0.1137 -0.1902  0.2054
  109MOL    H7834854   3.262   2.935   4.499 -2.7081  0.5434 -1.4239
  109MOL    H7934855   3.424   2.757   4.571  0.7184 -2.5692 -1.0527
  109MOL    H8034856   3.240   2.329   4.606  0.7792  0.0469 -0.0563
  109MOL    H8134857   3.401   2.297   4.661  1.0044  0.3336  0.9825
  109MOL    C8234858   3.285   2.408   4.805  0.6000 -0.4621 -0.3112
  109MOL    C8334859   3.171   2.506   4.816 -0.1963  0.0009 -0.6695
  109MOL    C8434860   3.034   2.464   4.800 -0.1142  0.5328  0.2597
  109MOL    C8534861   2.934   2.563   4.788 -0.1523  0.1475  0.3405
  109MOL   Cl8634862   2.775   2.517   4.744 -0.2253  0.1704 -0.0186
  109MOL    C8734863   2.964   2.698   4.821  0.2198  0.4051 -0.3113
  109MOL    C8834864   3.097   2.738   4.849  0.8042 -0.2498  0.5411
  109MOL    C8934865   3.198   2.646   4.844 -0.5448  0.9766 -0.1657
  109MOL    C9034866   3.250   2.286   4.895  0.5223  0.0473 -0.3744
  109MOL    H9134867   3.362   2.461   4.861  0.5366 -2.1746  1.4602
  109MOL    H9234868   3.002   2.364   4.773  2.8438 -0.2313 -0.6719
  109MOL    H9334869   2.879   2.765   4.816  0.1288  0.4730  1.6256
  109MOL    H9434870   3.119   2.841   4.874 -1.0511 -0.0524  1.4348
  109MOL    H9534871   3.297   2.684   4.867  0.3329  0.3693 -2.7429
  109MOL    H9634872   3.196   2.323   4.982 -0.7073  2.1862 -1.9904
  109MOL    H9734873   3.186   2.222   4.833  0.8622 -0.4074 -0.2572
  109MOL    C9834874   3.369   2.207   4.956 -0.0554  0.1262  0.1990
  109MOL    C9934875   3.456   2.292   5.049 -0.0507 -0.3363 -0.2814
  109MOL   C10034876   3.404   2.329   5.177 -0.3789 -0.7103  0.3397
  109MOL   C10134877   3.485   2.405   5.265 -0.4406 -0.0339 -0.7110
  109MOL  Cl10234878   3.434   2.445   5.421  0.0099 -0.0584 -0.0469
  109MOL   C10334879   3.618   2.433   5.224  0.8356 -0.0082  0.6240
  109MOL   C10434880   3.678   2.392   5.101 -0.6094 -0.6098  0.1427
  109MOL   C10534881   3.591   2.322   5.013 -0.5860 -0.6796  0.1180
  109MOL   C10634882   3.313   2.068   5.013 -0.0045 -0.2034  0.3527
  109MOL   H10734883   3.434   2.189   4.870 -1.5458 -0.4328 -0.8300
  109MOL   H10834884   3.307   2.298   5.213  1.1537 -3.1094  2.5557
  109MOL   H10934885   3.676   2.490   5.295  0.7717  1.1560 -0.2510
  109MOL   H11034886   3.778   2.423   5.075 -0.1756 -1.5835  0.6111
  109MOL   H11134887   3.630   2.319   4.912  1.0583  0.7918  0.6814
  109MOL   H11234888   3.227   2.096   5.073  1.3857  3.0597  0.9220
  109MOL   H11334889   3.270   2.007   4.934 -2.2918  2.8412 -0.8365
  109MOL   C11434890   3.396   1.980   5.116  0.3983 -0.0757 -0.1199
  109MOL   C11534891   3.303   1.889   5.199 -0.6117  0.6480 -0.5846
  109MOL   C11634892   3.274   1.762   5.147  0.8797 -0.4803 -0.3842
  109MOL   C11734893   3.170   1.684   5.201 -0.7300  0.1518 -0.8802
  109MOL  Cl11834894   3.122   1.536   5.128  0.2383  0.6717  0.3538
  109MOL   C11934895   3.108   1.732   5.321  1.3415  0.0350  0.7650
  109MOL   C12034896   3.135   1.855   5.377 -0.2930  0.1498  0.0762
  109MOL   C12134897   3.235   1.939   5.314  0.1294  0.2567 -0.3717
  109MOL   C12234898   3.522   1.915   5.052 -0.5249 -1.0779 -0.0356
  109MOL   H12334899   3.436   2.047   5.192 -0.4809  0.0105  0.2649
  109MOL   H12434900   3.310   1.727   5.051  0.2722 -0.3892 -0.6514
  109MOL   H12534901   3.024   1.674   5.356  1.1249 -1.8831 -2.6596
  109MOL   H12634902   3.070   1.893   5.455  0.1191 -0.6269  0.8090
  109MOL   H12734903   3.258   2.036   5.354  2.7295 -0.0307 -1.0720
  109MOL   H12834904   3.479   1.860   4.968 -2.1393  0.6531 -0.3894
  109MOL   H12934905   3.573   1.994   4.996 -0.6283 -1.1406 -0.2195
  109MOL   C13034906   3.623   1.835   5.137 -0.3560 -0.1107  0.7490
  109MOL   C13134907   3.731   1.766   5.050 -0.2513 -0.2455 -0.5377
  109MOL   C13234908   3.825   1.842   4.983 -0.2840 -0.5781 -0.4834
  109MOL   C13334909   3.917   1.783   4.895  0.2646  0.1286 -0.5474
  109MOL  Cl13434910   4.044   1.885   4.827  0.0332 -0.0687 -0.6725
  109MOL   C13534911   3.919   1.645   4.864  0.0249 -0.1979  0.1600
  109MOL   C13634912   3.818   1.574   4.936  0.0368  0.2918 -0.8476
  109MOL   C13734913   3.729   1.627   5.027  0.2143  0.8829  0.2433
  109MOL   C13834914   3.690   1.902   5.263 -0.4547  0.5262  0.4594
  109MOL   H13934915   3.562   1.751   5.171  1.0667 -1.2234  0.6224
  109MOL   H14034916   3.837   1.948   5.002  2.3985 -1.1966  1.6535
  109MOL   H14134917   3.987   1.600   4.793  2.3408  0.8604  1.6103
  109MOL   H14234918   3.815   1.469   4.912 -0.1168  0.3054 -0.8881
  109MOL   H14334919   3.652   1.564   5.069  1.1346 -0.0401  0.5430
  109MOL   H14434920   3.796   1.876   5.270 -0.6844 -0.6580 -0.2304
  109MOL   H14534921   3.684   2.009   5.247 -1.1372  0.2553 -1.1398
  109MOL   C14634922   3.624   1.872   5.400 -0.7709  0.2024  0.2210
  109MOL   C14734923   3.633   1.719   5.422  0.6888 -0.5501 -0.1753
  109MOL   C14834924   3.759   1.654   5.431  1.4692  0.1908 -0.0650
  109MOL   C14934925   3.753   1.511   5.427  0.1831 -0.8479  0.2437
  109MOL  Cl15034926   3.898   1.427   5.397  0.1645 -0.0686 -0.3400
  109MOL   C15134927   3.632   1.437   5.424 -0.0982 -0.5397 -0.1670
  109MOL   C15234928   3.511   1.508   5.428  0.6527 -0.4126  0.2243
  109MOL   C15334929   3.511   1.648   5.422 -0.0393 -0.3213 -0.0478
  109MOL   C15434930   3.677   1.953   5.526  0.2212  0.2194  0.7575
  109MOL   H15534931   3.518   1.893   5.384 -0.6941  0.4841  0.0914
  109MOL   H15634932   3.847   1.716   5.432  1.5691  0.0353  1.0455
  109MOL   H15734933   3.637   1.329   5.421 -1.9964 -0.6656  0.8261
  109MOL   H15834934   3.414   1.461   5.423  0.7513 -0.4645 -1.4480
  109MOL   H15934935   3.415   1.696   5.411 -0.2614 -0.9863 -1.1270
  109MOL   H16034936   3.785   1.939   5.531  0.1511 -1.1698 -1.1265
  109MOL   H16134937   3.678   2.058   5.497 -0.0071 -0.1787 -0.7282
  109MOL   C16234938   3.590   1.950   5.652  0.4535 -0.1497  0.9337
  109MOL   C16334939   3.610   1.834   5.743  0.2166  0.7152 -0.7335
  109MOL   C16434940   3.738   1.785   5.769 -0.6669 -0.2159 -0.0843
  109MOL   C16534941   3.751   1.680   5.859  0.3067  0.0983  0.6160
  109MOL  Cl16634942   3.906   1.627   5.901  0.0465 -0.2864  0.3016
  109MOL   C16734943   3.646   1.611   5.909  0.0350  0.0392 -0.2134
  109MOL   C16834944   3.520   1.668   5.894  0.2865  1.0283 -0.2540
  109MOL   C16934945   3.496   1.774   5.806 -0.0964  0.1677 -0.7193
  109MOL   C17034946   3.595   2.086   5.730  0.7949 -0.1613  0.1190
  109MOL   H17134947   3.489   1.946   5.611  0.7776 -0.1946  0.1380
  109MOL   H17234948   3.823   1.830   5.721 -0.9490 -1.3242 -1.6725
  109MOL   H17334949   3.668   1.530   5.977  0.0586  2.8886  3.3337
  109MOL   H17434950   3.437   1.631   5.951 -0.2404  2.0595 -0.3323
  109MOL   H17534951   3.397   1.815   5.795 -0.4261 -0.0234  1.3632
  109MOL   H17634952   3.578   2.168   5.661 -0.8238 -1.4716 -1.0910
  109MOL   H17734953   3.511   2.100   5.798  0.4383  0.6528 -0.4817
  109MOL   C17834954   3.727   2.115   5.803  0.7181 -0.3753 -0.5847
  109MOL   C17934955   3.842   2.156   5.704  0.0440  0.5632  0.0618
  109MOL   C18034956   3.818   2.276   5.628  0.2865  0.7992  0.0891
  109MOL   C18134957   3.927   2.329   5.550  0.9477 -0.4185 -0.0478
  109MOL  Cl18234958   3.913   2.481   5.463 -0.4097  0.2944 -0.1501
  109MOL   C18334959   4.045   2.260   5.547 -0.7349 -0.0815  0.5224
  109MOL   C18434960   4.067   2.137   5.613 -0.0306  0.3637  0.4823
  109MOL   C18534961   3.960   2.086   5.696 -0.3276  0.1999 -0.6240
  109MOL   C18634962   3.711   2.230   5.914  0.5370 -0.0894 -0.8977
  109MOL   H18734963   3.757   2.023   5.854 -0.2945  0.7411  2.1164
  109MOL   H18834964   3.720   2.322   5.627 -0.3588 -0.5832 -0.9935
  109MOL   H18934965   4.126   2.304   5.491 -0.4153 -0.8436  0.3796
  109MOL   H19034966   4.162   2.086   5.614 -1.7144 -2.9242  1.6713
  109MOL   H19134967   3.979   1.989   5.739 -1.2768  0.5716  0.6481
  109MOL   H19234968   3.809   2.268   5.942 -0.4795  0.7700  1.7207
  109MOL   H19334969   3.639   2.304   5.878 -0.8145 -1.1841 -0.5060
  109MOL   C19434970   3.647   2.173   6.045 -1.1508 -0.0483  0.2236
  109MOL   C19534971   3.748   2.086   6.128  0.1907 -0.2921 -0.6007
  109MOL   C19634972   3.724   1.950   6.160  0.2156 -0.5109  0.2701
  109MOL   C19734973   3.822   1.882   6.233 -0.2717 -0.1547 -0.2083
  109MOL  Cl19834974   3.795   1.709   6.258 -0.0765 -0.5610 -0.0204
  109MOL   C19934975   3.941   1.940   6.274 -0.1187 -0.3664 -0.3056
  109MOL   C20034976   3.969   2.075   6.238  0.3177  0.3159  0.5771
  109MOL   C20134977   3.870   2.149   6.172  0.3010 -0.8113 -0.1867
  109MOL   C20234978   3.573   2.276   6.136 -0.1317 -1.3056 -0.1262
  109MOL   H20334979   3.576   2.097   6.012 -0.5706 -0.6522  0.3304
  109MOL   H20434980   3.641   1.895   6.118 -1.7341  0.3304  2.8744
  109MOL   H20534981   4.009   1.875   6.326 -0.1334 -1.1510 -1.2634
  109MOL   H20634982   4.061   2.124   6.267  0.8264 -1.5784  2.2331
  109MOL   H20734983   3.889   2.254   6.154 -1.3898 -0.5392 -0.5454
  109MOL   H20834984   3.560   2.229   6.233  2.5606 -0.4137  0.6974
  109MOL   H20934985   3.640   2.360   6.147  1.2958 -2.7135  2.2883
  109MOL   C21034986   3.435   2.330   6.087  0.4063  0.1356  0.3940
  109MOL   C21134987   3.351   2.228   6.014  0.0228  0.5515 -0.2404
  109MOL   C21234988   3.331   2.100   6.072  0.1952 -1.0448  0.3485
  109MOL   C21334989   3.256   2.002   6.013 -0.0230  0.1807 -0.9143
  109MOL  Cl21434990   3.238   1.843   6.084  0.1109  0.2328 -0.0405
  109MOL   C21534991   3.212   2.020   5.882 -0.9385 -0.8428  0.5121
  109MOL   C21634992   3.234   2.149   5.816 -0.5945  0.8211 -0.4058
  109MOL   C21734993   3.311   2.246   5.883 -0.0487  0.0493  0.0021
  109MOL   C21834994   3.368   2.404   6.203 -0.1034  0.6994  0.1037
  109MOL   H21934995   3.462   2.413   6.022  3.0040 -0.9459  0.0138
  109MOL   H22034996   3.374   2.091   6.171 -0.2270  0.0320  0.6451
  109MOL   H22134997   3.157   1.946   5.827 -0.5619 -0.8604  0.1571
  109MOL   H22234998   3.200   2.172   5.716 -0.7838  0.4724 -0.4242
  109MOL   H22334999   3.334   2.339   5.833  1.1700  0.4119  1.1864
  109MOL   H22435000   3.354   2.331   6.283  0.2813 -0.3094 -0.7392
  109MOL   H22535001   3.437   2.482   6.236  1.2269  0.5193 -2.1821
  109MOL   C22635002   3.241   2.498   6.180  0.1278  0.0069 -0.4009
  109MOL   C22735003   3.278   2.586   6.061 -0.7894 -0.0356 -1.2468
  109MOL   C22835004   3.232   2.561   5.932 -0.3608 -0.4897 -0.1652
  109MOL   C22935005   3.273   2.633   5.819 -0.1494  0.2509 -0.0663
  109MOL  Cl23035006   3.217   2.586   5.663  0.1541  0.6263  0.0006
  109MOL   C23135007   3.357   2.743   5.835  0.6178  0.2007  0.1438
  109MOL   C23235008   3.405   2.777   5.962 -0.1758  0.3376 -0.9787
  109MOL   C23335009   3.363   2.697   6.070  0.6937 -0.0227 -0.1055
  109MOL   C23435010   3.097   2.439   6.171  0.0904  0.4452 -0.1855
  109MOL   H23535011   3.241   2.573   6.260  0.4315 -1.0476  0.5944
  109MOL   H23635012   3.154   2.490   5.909  1.1645 -1.7147 -1.6908
  109MOL   H23735013   3.395   2.803   5.754  0.8260  0.1031  0.1691
  109MOL   H23835014   3.463   2.863   5.989 -2.3600  1.2578  0.9508
  109MOL   H23935015   3.403   2.727   6.166 -0.9183  0.2811  0.4943
  109MOL   H24035016   3.024   2.517   6.152  0.9643  1.0684 -1.1076
  109MOL   H24135017   3.086   2.360   6.096 -1.2369 -0.5760  1.0688
  109MOL   C24235018   3.045   2.371   6.304 -0.5890 -0.1546  0.1922
  109MOL   C24335019   3.074   2.456   6.423 -0.0715 -0.2461  0.7142
  109MOL   C24435020   3.170   2.425   6.521  0.0537  0.8967  0.2396
  109MOL   C24535021   3.190   2.511   6.632  0.9017 -0.1144  0.2555
  109MOL  Cl24635022   3.303   2.466   6.757  0.0902 -0.2700  0.0703
  109MOL   C24735023   3.128   2.641   6.637 -0.4019 -0.3627 -0.5643
  109MOL   C24835024   3.053   2.685   6.527 -0.3836  0.4946  0.1664
  109MOL   C24935025   3.018   2.583   6.425  0.5814  0.0370 -0.0398
  109MOL   C25035026   2.891   2.332   6.298 -0.0411 -0.4591 -0.2730
  109MOL   H25135027   3.101   2.279   6.319 -3.0557 -1.5496  0.9341
  109MOL   H25235028   3.231   2.336   6.525 -0.8322  0.2405 -0.6035
  109MOL   H25335029   3.154   2.707   6.719  0.9603  1.4143 -2.3775
  109MOL   H25435030   3.002   2.780   6.519 -1.3275  0.0068  0.2488
  109MOL   H25535031   2.954   2.609   6.342  0.3010 -1.8896 -0.4524
  109MOL   H25635032   2.853   2.425   6.254  1.4317 -0.3805 -1.4378
  109MOL   H25735033   2.870   2.241   6.242 -1.8061 -0.3759  0.2313
  109MOL   C25835034   2.815   2.313   6.438 -0.1954 -0.1989  0.2712
  109MOL   C25935035   2.668   2.292   6.417  0.6291 -0.4921  0.1839
  109MOL   C26035036   2.587   2.400   6.450 -0.1294 -0.3001  0.1636
  109MOL   C26135037   2.446   2.383   6.435  0.0607 -0.3242 -0.6598
  109MOL  Cl26235038   2.338   2.516   6.473 -0.1747  0.0793 -0.1234
  109MOL   C26335039   2.399   2.257   6.396  0.3456  0.5340 -0.2978
  109MOL   C26435040   2.483   2.153   6.359  0.3424 -0.2611 -0.3277
  109MOL   C26535041   2.620   2.171   6.367 -0.3219 -0.1415 -0.2481
  109MOL   C26635042   2.872   2.204   6.531  0.1568 -0.4786 -0.0684
  109MOL   H26735043   2.836   2.408   6.487  0.6201  0.4285 -1.2484
  109MOL   H26835044   2.625   2.495   6.485 -1.4652  0.4874 -0.5000
  109MOL   H26935045   2.293   2.240   6.388  0.5613 -2.4224  2.2508
  109MOL   H27035046   2.439   2.058   6.332  1.1062 -0.1392 -2.0721
  109MOL   H27135047   2.684   2.094   6.327  0.2891 -0.0021  0.4647
  109MOL   H27235048   2.870   2.112   6.474 -0.3253 -1.7783  1.9926
  109MOL   H27335049   2.975   2.230   6.555 -0.6644  1.9292  1.0951
  109MOL   C27435050   2.795   2.179   6.662 -0.5293 -0.2316  0.6210
  109MOL   C27535051   2.843   2.044   6.722 -0.8215  0.2076 -0.8089
  109MOL   C27635052   2.744   1.953   6.766 -0.3057 -0.3560  0.4153
  109MOL   C27735053   2.778   1.821   6.808  0.8362 -0.1066  0.1742
  109MOL  Cl27835054   2.651   1.721   6.869  0.2476 -0.0919  0.2474
  109MOL   C27935055   2.914   1.777   6.798  0.2676  0.2832 -0.6072
  109MOL   C28035056   3.015   1.869   6.757  0.4560  0.1160  0.6005
  109MOL   C28135057   2.976   2.003   6.716 -0.2044  0.1456 -0.1384
  109MOL   C28235058   2.804   2.300   6.763  0.2615  0.9915  0.1799
  109MOL   H28335059   2.691   2.154   6.638 -0.5272 -1.0435  1.4226
  109MOL   H28435060   2.638   1.976   6.767 -0.3498 -0.5546  0.2634
  109MOL   H28535061   2.945   1.682   6.838 -0.0373  0.3833 -0.1243
  109MOL   H28635062   3.118   1.837   6.756  0.7580  0.8850  3.0414
  109MOL   H28735063   3.058   2.067   6.686  0.3804 -0.6952 -0.3646
  109MOL   H28835064   2.901   2.296   6.814  0.4259 -0.4535 -0.2182
  109MOL   H28935065   2.806   2.388   6.699 -1.1175 -0.9926 -2.7112
  109MOL   C29035066   2.699   2.315   6.877  0.2727  0.5392  0.1209
  109MOL   C29135067   2.744   2.418   6.983  0.2607 -0.1043  0.4318
  109MOL   C29235068   2.783   2.550   6.949 -0.3413 -0.0380 -0.0269
  109MOL   C29335069   2.824   2.643   7.043 -0.0411 -0.1343 -0.4002
  109MOL  Cl29435070   2.876   2.797   6.992  0.0232  0.3586 -0.1803
  109MOL   C29535071   2.824   2.607   7.181  0.5556 -0.4056 -0.1703
  109MOL   C29635072   2.786   2.477   7.221 -0.0485  0.0331  0.3999
  109MOL   C29735073   2.750   2.383   7.121  0.0619  0.3938  0.4971
  109MOL   C29835074   2.554   2.339   6.820 -0.3224 -0.3640  0.1071
  109MOL   H29935075   2.711   2.219   6.927  2.4807  2.0098  2.5803
  109MOL   H30035076   2.787   2.571   6.843  0.9753  3.1795  0.6101
  109MOL   H30135077   2.850   2.675   7.260  3.1414 -1.2522 -0.2464
  109MOL   H30235078   2.792   2.456   7.327  2.2575 -1.0189  0.0937
  109MOL   H30335079   2.719   2.281   7.140  1.5971 -0.7865 -3.0086
  109MOL   H30435080   2.562   2.437   6.772  0.1214 -0.2273  0.4597
  109MOL   H30535081   2.530   2.264   6.745  1.3560 -1.6544  0.8520
  109MOL   C30635082   2.440   2.333   6.932 -0.4318 -0.3285  0.8560
  109MOL   C30735083   2.312   2.389   6.879  1.0396 -0.1591  0.3242
  109MOL   C30835084   2.252   2.330   6.768 -0.0706  0.4221  0.3412
  109MOL   C30935085   2.135   2.379   6.720 -0.0883 -0.7425  0.9640
  109MOL  Cl31035086   2.076   2.332   6.571 -0.3072  0.1416  0.0559
  109MOL   C31135087   2.063   2.483   6.788  0.1131 -0.4011 -0.3512
  109MOL   C31235088   2.117   2.530   6.911  0.5103  0.8135 -0.3813
  109MOL   C31335089   2.242   2.491   6.949  0.8463  0.4784  0.1278
  109MOL   C31435090   2.430   2.194   6.997 -0.0241 -0.4641 -0.1086
  109MOL   H31535091   2.480   2.398   7.010  2.1993  1.1255 -1.6137
  109MOL   H31635092   2.301   2.256   6.707 -1.5766  0.3258 -0.7890
  109MOL   H31735093   1.980   2.529   6.736 -0.8863  0.1720  1.7040
  109MOL   H31835094   2.054   2.591   6.974 -0.4051  0.4405 -0.9208
  109MOL   H31935095   2.289   2.535   7.035  2.3213  0.5490 -0.6784
  109MOL   H32035096   2.524   2.169   7.046 -0.0110  1.7411  1.0421
  109MOL   H32135097   2.344   2.194   7.064 -0.4893  0.1833 -0.6932
  109MOL   H32235098   2.411   2.120   6.918  1.7657 -1.5010  0.3914
  110MOL     C135099   2.930   6.631   8.282  0.5124 -0.9804  0.0371
  110MOL     C235100   2.939   6.626   8.434 -0.6950  0.0510  0.4184
  110MOL     C335101   2.829   6.601   0.083  0.3554 -0.6004 -0.2705
  110MOL     C435102   2.836   6.613   0.222  0.6760 -0.3756 -0.5697
  110MOL    Cl535103   2.701   6.590   0.332  0.1451  0.2667 -0.0009
  110MOL     C635104   2.965   6.638   0.280 -0.8201 -0.1960  0.8957
  110MOL     C735105   3.077   6.642   0.199 -0.4828  0.0816  0.5971
  110MOL     C835106   3.065   6.638   0.060 -0.5573  0.0569  0.5302
  110MOL     C935107   2.931   6.497   8.225 -0.3940 -0.5909  0.3240
  110MOL    H1035108   3.009   6.697   8.246 -0.8026  1.2346  1.1247
  110MOL    H1135109   2.737   6.589   0.028 -0.3831  0.4366  0.7152
  110MOL    H1235110   2.977   6.625   0.387  0.7786 -1.9719  0.5228
  110MOL    H1335111   3.176   6.635   0.242  0.2211 -1.5176 -1.2154
  110MOL    H1435112   3.146   6.644   8.424 -2.2355  0.6570 -1.3594
  110MOL    H1535113   3.023   6.455   8.267 -1.5026 -2.7794  0.6237
  110MOL    H1635114   2.843   6.450   8.266 -0.2264  0.3588  1.8165
  110MOL    H1735115   2.830   6.667   8.257  1.3829  1.0319 -0.6325
  110MOL    C1835116   2.932   6.484   8.066 -0.1757 -0.8819  0.8819
  110MOL    C1935117   2.944   6.338   8.023  0.7047 -0.0649 -0.2789
  110MOL    C2035118   3.044   6.296   7.935  0.3402 -0.3325  0.6115
  110MOL    C2135119   3.066   6.163   7.906  0.1137 -0.1179  0.2655
  110MOL   Cl2235120   3.198   6.111   7.808  0.1183  0.3920 -0.2036
  110MOL    C2335121   2.976   6.070   7.945 -0.0441 -0.1055 -0.4868
  110MOL    C2435122   2.874   6.103   8.032 -0.0246  0.1222 -0.0613
  110MOL    C2535123   2.852   6.242   8.071  0.0554  0.0182 -0.7357
  110MOL    C2635124   2.809   6.556   7.988 -0.1146 -0.6638  0.4404
  110MOL    H2735125   3.022   6.538   8.038 -0.9221 -1.1388 -2.2952
  110MOL    H2835126   3.114   6.365   7.889  0.2357 -1.0571 -0.6559
  110MOL    H2935127   2.988   5.968   7.914  0.9602 -0.0717 -0.2198
  110MOL    H3035128   2.804   6.031   8.073  2.4390 -0.7673  2.7494
  110MOL    H3135129   2.773   6.256   8.144  1.1680 -1.4044  0.7687
  110MOL    H3235130   2.783   6.496   7.901  1.9438 -2.9383  1.3321
  110MOL    H3335131   2.723   6.549   8.055 -0.4703 -0.7580 -0.0250
  110MOL    C3435132   2.837   6.701   7.943  0.6559  0.0189  0.3121
  110MOL    C3535133   2.965   6.711   7.866  0.2588 -0.1771 -0.2161
  110MOL    C3635134   2.988   6.632   7.756 -0.8600  0.1192 -0.7226
  110MOL    C3735135   3.112   6.642   7.687 -0.2349  0.1842  0.3140
  110MOL   Cl3835136   3.128   6.546   7.543  0.0542  0.0793  0.1002
  110MOL    C3935137   3.212   6.738   7.728 -0.6478 -0.1220  0.3807
  110MOL    C4035138   3.192   6.810   7.846  0.2012 -0.2936 -0.0586
  110MOL    C4135139   3.070   6.794   7.914 -0.3124 -0.1721  1.0467
  110MOL    C4235140   2.721   6.757   7.845  0.4374 -0.1487 -0.2223
  110MOL    H4335141   2.853   6.762   8.033 -2.2538 -0.1224  0.9843
  110MOL    H4435142   2.917   6.558   7.724  0.8139 -0.4750 -3.1926
  110MOL    H4535143   3.297   6.755   7.663 -1.5698  0.5646 -0.6583
  110MOL    H4635144   3.273   6.873   7.877  1.2456 -1.8160  0.4004
  110MOL    H4735145   3.052   6.839   8.010 -0.5099  1.3848  0.2916
  110MOL    H4835146   2.753   6.861   7.841  0.7868 -0.2878 -1.2493
  110MOL    H4935147   2.731   6.721   7.743  1.7114 -0.0285 -0.1491
  110MOL    C5035148   2.574   6.741   7.896 -0.0398 -0.2748 -0.2995
  110MOL    C5135149   2.554   6.778   8.042  0.1466 -0.2735  0.6505
  110MOL    C5235150   2.508   6.677   8.133 -0.5951 -0.0995  0.0294
  110MOL    C5335151   2.500   6.709   8.269 -0.3358 -0.0680 -0.4589
  110MOL   Cl5435152   2.451   6.590   8.380  0.0218 -0.1357  0.4680
  110MOL    C5535153   2.534   6.837   8.311 -0.2774  0.4644 -0.0878
  110MOL    C5635154   2.567   6.940   8.223 -0.3929  0.4115 -0.4178
  110MOL    C5735155   2.582   6.906   8.086 -0.4621 -0.6105 -0.2609
  110MOL    C5835156   2.485   6.835   7.809 -0.3493 -0.0432  0.0164
  110MOL    H5935157   2.540   6.639   7.881  0.4296 -0.1428 -2.4924
  110MOL    H6035158   2.484   6.579   8.093 -1.6264  0.9466 -1.9538
  110MOL    H6135159   2.533   6.858   8.417  0.6098  3.3920 -0.6276
  110MOL    H6235160   2.589   7.041   8.257 -0.2614 -0.2561  1.5243
  110MOL    H6335161   2.619   6.977   8.012 -1.1651 -0.2160 -0.2414
  110MOL    H6435162   2.513   6.939   7.827  1.5601 -1.0058  3.0192
  110MOL    H6535163   2.524   6.817   7.708 -1.7941  2.2155 -0.9973
  110MOL    C6635164   2.326   6.811   7.804  0.9878 -0.2537 -0.7742
  110MOL    C6735165   2.261   6.915   7.895  0.2749 -0.3166  0.0509
  110MOL    C6835166   2.181   6.877   8.000 -0.3078  0.3807  0.1899
  110MOL    C6935167   2.118   6.975   8.081 -0.4152 -0.5996 -0.4962
  110MOL   Cl7035168   2.054   6.936   8.235  0.1583 -0.2672 -0.3447
  110MOL    C7135169   2.129   7.108   8.042  0.6366 -0.3325 -0.0202
  110MOL    C7235170   2.197   7.152   7.926  0.3401 -0.2578 -0.1801
  110MOL    C7335171   2.259   7.049   7.851 -0.3093 -0.3225 -0.1891
  110MOL    C7435172   2.272   6.806   7.662  0.8405  0.1927 -0.0870
  110MOL    H7535173   2.301   6.714   7.846  0.5713 -0.9274 -2.5129
  110MOL    H7635174   2.173   6.774   8.032  0.3825  0.0467 -0.7067
  110MOL    H7735175   2.100   7.183   8.115  2.3556  1.2132 -0.9066
  110MOL    H7835176   2.210   7.253   7.890  1.2110 -0.7520 -1.2923
  110MOL    H7935177   2.301   7.077   7.755 -0.6222  0.8317  0.0052
  110MOL    H8035178   2.309   6.889   7.602 -1.6799  1.7007  0.4307
  110MOL    H8135179   2.310   6.714   7.617 -2.2116 -1.3281  0.3137
  110MOL    C8235180   2.119   6.808   7.643  0.1066 -0.2962  0.9039
  110MOL    C8335181   2.077   6.862   7.510 -0.0940 -0.2695 -0.5634
  110MOL    C8435182   2.054   6.783   7.398  0.4063 -0.4822  0.3182
  110MOL    C8535183   1.995   6.836   7.280 -0.2784  0.3146  0.5039
  110MOL   Cl8635184   1.937   6.730   7.160  0.0795  0.0420  0.1591
  110MOL    C8735185   1.973   6.975   7.267 -0.1605 -0.0741 -0.4648
  110MOL    C8835186   2.001   7.056   7.377 -0.0789 -0.4941  0.0175
  110MOL    C8935187   2.061   7.005   7.495 -0.0281 -0.0294  0.0875
  110MOL    C9035188   2.044   6.668   7.675 -0.2531 -0.6162 -0.2104
  110MOL    H9135189   2.074   6.880   7.711 -2.5506  0.3981 -1.4799
  110MOL    H9235190   2.059   6.675   7.397  1.9413 -0.4255  1.0347
  110MOL    H9335191   1.918   7.020   7.186  0.3335  0.7548 -0.3526
  110MOL    H9435192   1.965   7.158   7.372 -2.9343 -1.4200  0.5891
  110MOL    H9535193   2.086   7.074   7.575  0.0671  0.3214 -0.2407
  110MOL    H9635194   2.096   6.603   7.606  2.5024  0.5263  0.7153
  110MOL    H9735195   2.075   6.643   7.776 -3.2621 -1.5836  0.5397
  110MOL    C9835196   1.885   6.665   7.660  0.2409 -0.8931 -0.2468
  110MOL    C9935197   1.816   6.533   7.640 -0.6466 -0.6840 -0.1224
  110MOL   C10035198   1.727   6.502   7.531 -0.6282  0.2232 -0.2046
  110MOL   C10135199   1.675   6.375   7.510 -0.5132  0.0358 -0.0515
  110MOL  Cl10235200   1.573   6.350   7.378  0.0719 -0.3851 -0.2883
  110MOL   C10335201   1.703   6.268   7.607  0.1763  0.8152  0.6829
  110MOL   C10435202   1.788   6.297   7.718 -0.2598  0.2334 -0.0015
  110MOL   C10535203   1.844   6.431   7.733 -0.7986 -0.3600  0.0051
  110MOL   C10635204   1.807   6.738   7.772  0.7365  0.4021 -0.3353
  110MOL   H10735205   1.859   6.717   7.568  3.7832  1.1924 -0.1552
  110MOL   H10835206   1.717   6.573   7.450  2.0044  0.2057 -0.5904
  110MOL   H10935207   1.651   6.174   7.601 -0.0725  1.0096 -0.4270
  110MOL   H11035208   1.831   6.231   7.792  0.1835  0.7390  0.1976
  110MOL   H11135209   1.914   6.446   7.814  0.2054 -0.0512 -0.9088
  110MOL   H11235210   1.715   6.691   7.809  1.7984  0.4543  2.4788
  110MOL   H11335211   1.866   6.751   7.862 -0.6202 -0.1695  0.6514
  110MOL   C11435212   1.779   6.878   7.731  0.5416 -0.0209 -0.2335
  110MOL   C11535213   1.653   6.883   7.647 -0.6944 -0.1894  0.0604
  110MOL   C11635214   1.679   6.913   7.505 -0.3967 -0.3734 -1.0040
  110MOL   C11735215   1.565   6.919   7.421 -0.2875 -0.3379  0.6152
  110MOL  Cl11835216   1.596   6.951   7.259 -0.1998 -0.2374 -0.4282
  110MOL   C11935217   1.433   6.909   7.475 -0.0369  0.3707  0.6829
  110MOL   C12035218   1.411   6.895   7.613  0.0636 -0.2476  0.1233
  110MOL   C12135219   1.521   6.870   7.696 -0.0231  0.4644 -0.0186
  110MOL   C12235220   1.761   6.972   7.848  0.4977 -0.2730  0.0079
  110MOL   H12335221   1.861   6.921   7.672  1.9729 -1.2424  0.8467
  110MOL   H12435222   1.777   6.920   7.461  0.4678  0.6895  0.9901
  110MOL   H12535223   1.354   6.924   7.403  1.5462  0.3050 -1.0749
  110MOL   H12635224   1.305   6.894   7.634 -0.4070 -1.8679 -2.2070
  110MOL   H12735225   1.497   6.853   7.800 -1.4923  0.4676 -0.3478
  110MOL   H12835226   1.684   6.925   7.908 -1.6898  1.1327 -1.6199
  110MOL   H12935227   1.857   6.977   7.900  0.2144 -1.3431  0.6419
  110MOL   C13035228   1.727   7.117   7.817  1.0113 -0.4611 -0.1470
  110MOL   C13135229   1.670   7.184   7.938  0.7173  0.0771  0.5557
  110MOL   C13235230   1.743   7.252   8.041 -0.2110 -0.5974 -0.1039
  110MOL   C13335231   1.685   7.318   8.150 -0.2712  0.1738  0.0574
  110MOL  Cl13435232   1.783   7.399   8.271  0.1325 -0.0285  0.4386
  110MOL   C13535233   1.544   7.320   8.149 -0.6157  0.3345 -0.6471
  110MOL   C13635234   1.473   7.249   8.058 -0.0295  0.5301  0.4704
  110MOL   C13735235   1.530   7.175   7.953  0.1800 -0.3017  0.9633
  110MOL   C13835236   1.844   7.202   7.767  0.1961 -0.4400 -0.3838
  110MOL   H13935237   1.654   7.131   7.737  2.3971  1.5464 -1.1124
  110MOL   H14035238   1.850   7.238   8.039  0.0223  1.1047  0.4690
  110MOL   H14135239   1.499   7.370   8.234  1.4825  1.4469 -0.1337
  110MOL   H14235240   1.366   7.262   8.062 -0.1822  0.8712 -3.1170
  110MOL   H14335241   1.458   7.133   7.884 -0.0514  0.8002  0.5240
  110MOL   H14435242   1.927   7.194   7.838  0.4818 -1.0682 -0.7865
  110MOL   H14535243   1.884   7.150   7.680  0.3930  1.6143 -1.5537
  110MOL   C14635244   1.828   7.357   7.745 -0.7953 -1.0521 -0.5066
  110MOL   C14735245   1.965   7.429   7.738 -0.1240 -0.5660 -0.2040
  110MOL   C14835246   2.035   7.408   7.613  0.2561  1.3181 -0.9654
  110MOL   C14935247   2.165   7.453   7.599  0.5914 -0.6246 -0.2925
  110MOL  Cl15035248   2.255   7.415   7.458  0.0072 -0.5672  0.2478
  110MOL   C15135249   2.225   7.528   7.707  0.2129  0.0240  0.9029
  110MOL   C15235250   2.154   7.544   7.830 -0.2123  0.3746  0.2181
  110MOL   C15335251   2.023   7.495   7.846  0.1771 -0.1553 -0.4392
  110MOL   C15435252   1.739   7.395   7.633 -0.5500  0.5678  0.2954
  110MOL   H15535253   1.773   7.396   7.831  0.0057 -1.1153  0.0350
  110MOL   H15635254   1.985   7.358   7.532  2.8209 -0.5191 -1.4832
  110MOL   H15735255   2.326   7.565   7.707  0.2217  0.0011  0.8126
  110MOL   H15835256   2.208   7.587   7.913 -0.1769  0.2535  0.2582
  110MOL   H15935257   1.970   7.509   7.939  1.3826  2.6836 -0.1250
  110MOL   H16035258   1.771   7.490   7.590  0.2138 -0.5366 -1.6526
  110MOL   H16135259   1.764   7.325   7.553  0.7522  2.1298 -0.6990
  110MOL   C16235260   1.592   7.425   7.663  0.8277  1.0589 -0.3843
  110MOL   C16335261   1.562   7.565   7.714 -0.6937  1.0299 -0.1481
  110MOL   C16435262   1.494   7.579   7.833 -0.5483 -0.3388 -0.2128
  110MOL   C16535263   1.458   7.703   7.886 -0.1737  0.5173  0.3515
  110MOL  Cl16635264   1.388   7.700   8.045  0.3209 -0.2348 -0.0932
  110MOL   C16735265   1.492   7.819   7.823  0.4603 -0.1871 -0.2342
  110MOL   C16835266   1.564   7.813   7.702  0.0502  0.2499  0.4222
  110MOL   C16935267   1.598   7.686   7.645  0.5324  0.1215 -0.4157
  110MOL   C17035268   1.514   7.395   7.532  0.0358 -0.9119 -0.9899
  110MOL   H17135269   1.546   7.363   7.741  1.0519  0.3791 -0.7940
  110MOL   H17235270   1.483   7.491   7.895 -0.9848 -0.0492  0.1256
  110MOL   H17335271   1.472   7.909   7.878 -1.9918 -0.8243  0.0064
  110MOL   H17435272   1.592   7.901   7.646 -1.8380  0.8123  0.3378
  110MOL   H17535273   1.660   7.687   7.556 -0.2288  1.1388 -0.9474
  110MOL   H17635274   1.533   7.469   7.455 -1.2927 -1.4883 -1.8944
  110MOL   H17735275   1.559   7.305   7.490  1.5496  0.7463 -3.0102
  110MOL   C17835276   1.361   7.397   7.545  0.0739  1.1705  0.7725
  110MOL   C17935277   1.298   7.360   7.411  0.0662  0.1746 -0.1201
  110MOL   C18035278   1.309   7.224   7.359  0.6710 -0.1937 -0.3799
  110MOL   C18135279   1.243   7.182   7.238 -0.4563  0.0735 -0.4654
  110MOL  Cl18235280   1.282   7.023   7.174  0.2351 -0.2352  0.3013
  110MOL   C18335281   1.159   7.277   7.173 -0.4171 -0.0047 -0.1591
  110MOL   C18435282   1.146   7.409   7.221  0.5657 -0.4042 -0.1318
  110MOL   C18535283   1.218   7.452   7.337  0.3509  1.0438 -1.2637
  110MOL   C18635284   1.305   7.303   7.655  0.3011 -0.0511  0.7533
  110MOL   H18735285   1.325   7.500   7.553 -2.8876  0.1550  1.1720
  110MOL   H18835286   1.364   7.157   7.424  0.4498 -0.2573 -0.2558
  110MOL   H18935287   1.109   7.243   7.083  0.5107  1.9312 -1.4258
  110MOL   H19035288   1.087   7.481   7.167  0.4612  0.9108  1.7121
  110MOL   H19135289   1.212   7.554   7.371 -5.0876  0.8162 -1.0753
  110MOL   H19235290   1.371   7.217   7.643 -1.1946 -0.9372 -1.3797
  110MOL   H19335291   1.334   7.357   7.745  5.4737 -1.6495  0.2238
  110MOL   C19435292   1.157   7.273   7.667  0.3361  0.1720  0.4349
  110MOL   C19535293   1.125   7.159   7.753 -1.0387  0.0007  1.2163
  110MOL   C19635294   1.149   7.170   7.888 -0.0425  0.6163 -0.2028
  110MOL   C19735295   1.112   7.064   7.970 -0.8524 -0.5287 -0.8745
  110MOL  Cl19835296   1.141   7.076   8.140  0.4049  0.1494 -0.3605
  110MOL   C19935297   1.040   6.954   7.925 -0.6527  0.1488 -0.7112
  110MOL   C20035298   1.015   6.950   7.786  0.6120  0.1483 -0.0250
  110MOL   C20135299   1.061   7.050   7.697  0.3257 -0.5406  0.2871
  110MOL   C20235300   1.076   7.400   7.703 -0.3422  0.2781  0.5639
  110MOL   H20335301   1.132   7.238   7.567  1.5050 -1.2691  0.6154
  110MOL   H20435302   1.193   7.262   7.926 -1.2536  1.0701  0.1223
  110MOL   H20535303   1.005   6.872   7.986  1.5851 -0.0814  0.3277
  110MOL   H20635304   0.969   6.866   7.736 -2.1342  0.2524  2.2106
  110MOL   H20735305   1.042   7.037   7.591  1.5478  0.1564 -0.0388
  110MOL   H20835306   1.115   7.435   7.798  1.1045 -1.9202  0.8277
  110MOL   H20935307   1.098   7.474   7.626  0.1423 -1.2365 -0.7985
  110MOL   C21035308   0.920   7.393   7.684 -0.5334  0.2735 -0.2792
  110MOL   C21135309   0.847   7.319   7.793 -0.1943  0.5328  0.1012
  110MOL   C21235310   0.852   7.364   7.926  0.1301 -0.2538 -0.4343
  110MOL   C21335311   0.794   7.290   8.029 -0.2050 -0.6655 -0.2919
  110MOL  Cl21435312   0.796   7.339   8.186  0.3568  0.2086  0.5017
  110MOL   C21535313   0.736   7.170   7.999  0.3866 -0.6553  0.1021
  110MOL   C21635314   0.730   7.121   7.870  0.1160  0.1675 -0.2309
  110MOL   C21735315   0.787   7.195   7.764  0.0041 -0.6460 -0.3362
  110MOL   C21835316   0.861   7.531   7.648  0.4378  0.2423 -0.3348
  110MOL   H21935317   0.899   7.347   7.587  0.3028 -0.8435  0.0612
  110MOL   H22035318   0.908   7.453   7.951 -2.1557  1.1971 -0.3739
  110MOL   H22135319   0.692   7.116   8.081 -1.5900  0.2693 -0.3174
  110MOL   H22235320   0.680   7.026   7.860 -0.5740  0.5700 -0.6676
  110MOL   H22335321   0.803   7.158   7.664 -2.7323 -3.2654  0.1364
  110MOL   H22435322   0.864   7.590   7.740 -0.8246  0.7479 -0.6041
  110MOL   H22535323   0.927   7.572   7.572  1.5787 -1.5344 -0.3128
  110MOL   C22635324   0.720   7.522   7.600  0.1451 -0.1656 -0.0403
  110MOL   C22735325   0.645   7.657   7.629  0.7833  0.0581 -0.3433
  110MOL   C22835326   0.677   7.771   7.543  0.1616 -0.3099 -0.1925
  110MOL   C22935327   0.611   7.892   7.562 -0.1490 -0.3468 -0.3626
  110MOL  Cl23035328   0.643   8.015   7.452 -0.3223 -0.2689  0.2291
  110MOL   C23135329   0.519   7.915   7.669  0.0212 -0.2464  0.3065
  110MOL   C23235330   0.492   7.800   7.751 -0.1773  0.3158  0.1379
  110MOL   C23335331   0.563   7.677   7.739 -0.0111  0.5898 -0.0536
  110MOL   C23435332   0.696   7.484   7.451  0.7352 -0.3553  0.1102
  110MOL   H23535333   0.671   7.441   7.655 -0.8327 -0.8650 -1.8890
  110MOL   H23635334   0.745   7.763   7.460 -0.2559  0.3583 -0.6021
  110MOL   H23735335   0.478   8.010   7.699 -2.1040 -0.6684 -1.1675
  110MOL   H23835336   0.440   7.814   7.845 -0.0106  0.8963  0.1456
  110MOL   H23935337   0.544   7.607   7.819  0.0934  0.7204  0.0839
  110MOL   H24035338   0.733   7.553   7.375 -2.6347  0.1903 -1.1469
  110MOL   H24135339   0.750   7.391   7.437 -0.9469 -1.0878 -1.8278
  110MOL   C24235340   0.553   7.446   7.408  0.9078 -0.0436 -0.2344
  110MOL   C24335341   0.536   7.471   7.256 -0.0507 -0.1085  0.5595
  110MOL   C24435342   0.633   7.411   7.176  0.5003 -0.1729  0.7297
  110MOL   C24535343   0.622   7.422   7.040  0.5753  0.3905  0.4409
  110MOL  Cl24635344   0.746   7.344   6.945 -0.2580 -0.1392 -0.3732
  110MOL   C24735345   0.520   7.497   6.981 -0.2238 -0.1921 -0.0084
  110MOL   C24835346   0.423   7.552   7.058  0.4463 -0.4905 -0.2130
  110MOL   C24935347   0.426   7.540   7.198 -0.6669 -0.3458  0.3472
  110MOL   C25035348   0.507   7.298   7.442 -0.3021  0.3428  0.5059
  110MOL   H25135349   0.488   7.521   7.454  0.2680  0.6183 -2.1705
  110MOL   H25235350   0.712   7.346   7.210 -0.2187 -1.4250  0.0735
  110MOL   H25335351   0.511   7.498   6.873  0.6147  0.8917 -0.0811
  110MOL   H25435352   0.336   7.592   7.008 -0.4477 -0.1918  1.5497
  110MOL   H25535353   0.347   7.571   7.265 -0.5735 -1.3803  0.9389
  110MOL   H25635354   0.574   7.218   7.409  0.9338  0.6528  2.2040
  110MOL   H25735355   0.532   7.292   7.548 -0.8628 -2.0051  0.5407
  110MOL   C25835356   0.358   7.268   7.426  0.5507  1.1500 -1.0884
  110MOL   C25935357   0.335   7.113   7.436 -0.2996 -0.8936  0.1115
  110MOL   C26035358   0.320   7.043   7.315  0.4082  0.3138  0.2877
  110MOL   C26135359   0.329   6.903   7.323  0.4295  0.9486  0.5327
  110MOL  Cl26235360   0.321   6.817   7.173  0.0867 -0.0637  0.2601
  110MOL   C26335361   0.350   6.834   7.435 -0.3314  0.9399 -0.1155
  110MOL   C26435362   0.362   6.903   7.559 -0.1086 -0.8848 -0.1692
  110MOL   C26535363   0.357   7.049   7.560  0.1029  0.6310  0.0267
  110MOL   C26635364   0.267   7.349   7.523  0.0259 -0.0248  0.5303
  110MOL   H26735365   0.338   7.309   7.327 -2.4882  3.3248  0.3665
  110MOL   H26835366   0.306   7.093   7.220 -1.9530  1.6934  1.3204
  110MOL   H26935367   0.366   6.727   7.443 -2.0805  0.5607 -1.4482
  110MOL   H27035368   0.366   6.843   7.649 -0.9284 -1.8154 -0.7495
  110MOL   H27135369   0.371   7.097   7.656  0.8744  0.7262 -0.1337
  110MOL   H27235370   0.305   7.323   7.622 -1.1414  1.2621  1.3321
  110MOL   H27335371   0.293   7.454   7.521 -2.6199  0.6598 -0.0689
  110MOL   C27435372   0.119   7.322   7.523  0.8645 -0.4047 -0.3433
  110MOL   C27535373   0.057   7.392   7.642 -0.2148 -0.7886  0.1725
  110MOL   C27635374   8.421   7.324   7.742 -0.4229  0.2751  0.2267
  110MOL   C27735375   8.364   7.387   7.857  0.2358  0.2316  0.6681
  110MOL  Cl27835376   8.273   7.303   7.982  0.0738 -0.0932 -0.4121
  110MOL   C27935377   8.380   7.524   7.875 -0.5368  0.6038 -0.3930
  110MOL   C28035378   0.010   7.600   7.776  0.2717  0.3595 -0.3479
  110MOL   C28135379   0.069   7.533   7.665 -0.2666  0.3791  0.0278
  110MOL   C28235380   0.055   7.384   7.394 -0.1127 -0.0323  0.4565
  110MOL   H28335381   0.089   7.217   7.519 -1.0901 -0.0063  2.2931
  110MOL   H28435382   8.417   7.216   7.734  2.8082  0.0214  1.4274
  110MOL   H28535383   8.330   7.578   7.954 -0.2335  2.0308 -1.1556
  110MOL   H28635384   0.012   7.708   7.782  0.1694  0.2609  1.9373
  110MOL   H28735385   0.132   7.598   7.606 -0.5918 -0.0304 -0.7683
  110MOL   H28835386   0.057   7.493   7.394  2.3880 -0.0300 -1.6829
  110MOL   H28935387   0.119   7.356   7.310  0.1204 -0.7686  0.8719
  110MOL   C29035388   8.346   7.329   7.357 -0.5819  0.1365  0.1111
  110MOL   C29135389   8.241   7.330   7.470 -0.6050  0.2076 -0.6841
  110MOL   C29235390   8.195   7.450   7.533 -0.2521 -0.5888  0.3029
  110MOL   C29335391   8.107   7.448   7.641 -0.2335  0.0879  0.3537
  110MOL  Cl29435392   8.065   7.592   7.726  0.1529  0.0413 -0.4616
  110MOL   C29535393   8.058   7.324   7.688  0.1603  0.1467 -1.4578
  110MOL   C29635394   8.096   7.202   7.627  0.8177 -0.0190 -0.3790
  110MOL   C29735395   8.189   7.209   7.517  0.1406  0.5925 -0.1569
  110MOL   C29835396   8.278   7.397   7.237 -0.6188  0.5598 -0.3730
  110MOL   H29935397   8.366   7.226   7.328  0.6560  1.0849 -2.5464
  110MOL   H30035398   8.228   7.545   7.494 -1.4910 -1.0061 -1.8440
  110MOL   H30135399   7.992   7.321   7.774  2.7443  0.7289  0.5995
  110MOL   H30235400   8.058   7.108   7.665  0.5165 -0.2620 -1.2697
  110MOL   H30335401   8.217   7.116   7.469  0.4294  0.3295  0.5104
  110MOL   H30435402   8.185   7.346   7.212 -0.4395 -0.1602  0.4085
  110MOL   H30535403   8.244   7.497   7.265 -0.3308 -0.0588  2.3239
  110MOL   C30635404   8.357   7.412   7.105  0.1769 -0.4305  0.3477
  110MOL   C30735405   8.424   7.287   7.058 -0.4072 -0.6240  0.3277
  110MOL   C30835406   0.129   7.296   7.037  0.2921  0.5080 -0.0967
  110MOL   C30935407   0.193   7.182   6.986  0.2332  0.4001  0.4437
  110MOL  Cl31035408   0.368   7.184   6.963  0.4611 -0.0831  0.3384
  110MOL   C31135409   0.118   7.070   6.943  1.4796  0.7250 -0.1492
  110MOL   C31235410   8.415   7.058   6.978  0.5763  0.0466 -0.4650
  110MOL   C31335411   8.348   7.176   7.024  0.8067  0.1800 -0.2405
  110MOL   C31435412   8.270   7.466   6.990 -0.1089  0.3953  0.9030
  110MOL   H31535413   0.007   7.478   7.117  0.8075 -1.1663 -0.0376
  110MOL   H31635414   0.184   7.375   7.087 -1.1858 -0.0801  2.5957
  110MOL   H31735415   0.182   6.986   6.919 -0.5892 -0.6860 -0.8707
  110MOL   H31835416   8.365   6.963   6.966  0.1438  0.2842 -0.5468
  110MOL   H31935417   8.243   7.170   7.049  1.0965 -0.0715  0.9567
  110MOL   H32035418   8.326   7.440   6.900  1.2340 -1.5919  2.2589
  110MOL   H32135419   8.167   7.431   6.990 -0.0845  0.3301  0.5912
  110MOL   H32235420   8.261   7.574   6.997  0.1220  0.3701  1.7249
  111MOL     C135421   2.353   2.322   1.069  0.0449  0.4084 -0.2412
  111MOL     C235422   2.264   2.284   0.948  0.1468 -0.0366  0.4051
  111MOL     C335423   2.322   2.314   0.821  0.2784  0.0955  0.5788
  111MOL     C435424   2.248   2.281   0.704 -0.5975  0.1907 -0.3158
  111MOL    Cl535425   2.313   2.312   0.549  0.3412  0.3898  0.0152
  111MOL     C635426   2.115   2.235   0.717 -0.1902 -0.0323  0.7123
  111MOL     C735427   2.061   2.213   0.846 -0.5587 -0.7852  0.1328
  111MOL     C835428   2.137   2.236   0.961  0.3370 -0.4034  0.5478
  111MOL     C935429   2.411   2.197   1.142  0.9039 -0.6918 -0.5753
  111MOL    H1035430   2.291   2.374   1.142 -0.4132  0.9456 -1.0224
  111MOL    H1135431   2.421   2.351   0.799  0.0758  0.4606  0.2822
  111MOL    H1235432   2.064   2.210   0.625  1.9525 -1.4892 -0.1012
  111MOL    H1335433   1.961   2.177   0.864 -0.4270 -0.4077  1.6801
  111MOL    H1435434   2.094   2.215   1.058 -2.7057 -1.9199 -1.0493
  111MOL    H1535435   2.327   2.137   1.179 -0.1642  2.7664  2.9435
  111MOL    H1635436   2.470   2.139   1.071  2.9114  0.4225  0.1609
  111MOL    H1735437   2.425   2.397   1.036 -0.3708  0.0028 -2.1271
  111MOL    C1835438   2.501   2.217   1.270 -0.6844  0.5023 -0.2082
  111MOL    C1935439   2.425   2.289   1.378 -0.5014 -0.0830  0.0695
  111MOL    C2035440   2.458   2.418   1.422 -0.1319 -0.2884 -0.1171
  111MOL    C2135441   2.369   2.486   1.510  0.1929  0.0719 -0.5156
  111MOL   Cl2235442   2.407   2.644   1.552 -0.1113 -0.1557 -0.4562
  111MOL    C2335443   2.255   2.428   1.555 -0.3677  0.5934  0.3480
  111MOL    C2435444   2.230   2.292   1.530 -0.2788 -0.1706  0.4693
  111MOL    C2535445   2.312   2.229   1.433  0.0781  0.1081 -0.0228
  111MOL    C2635446   2.564   2.079   1.304  0.5809  0.4807 -0.2222
  111MOL    H2735447   2.592   2.269   1.240 -0.5031  0.0624 -0.4265
  111MOL    H2835448   2.552   2.463   1.391  1.2844 -3.2993 -0.4350
  111MOL    H2935449   2.209   2.481   1.637 -1.4402 -0.3156  0.3499
  111MOL    H3035450   2.146   2.236   1.568 -1.0933  0.1676 -0.7720
  111MOL    H3135451   2.289   2.125   1.416  0.5394  0.0630 -0.3466
  111MOL    H3235452   2.478   2.014   1.323  2.2929 -1.5267  0.7939
  111MOL    H3335453   2.609   2.033   1.217 -0.7744 -0.7367 -0.2993
  111MOL    C3435454   2.655   2.073   1.429  0.7904  0.2554  0.1442
  111MOL    C3535455   2.676   1.924   1.477  0.1296  0.0718 -0.0842
  111MOL    C3635456   2.662   1.880   1.610 -0.5253  0.0409  0.7406
  111MOL    C3735457   2.680   1.750   1.651  0.3962 -0.3186  0.2222
  111MOL   Cl3835458   2.662   1.701   1.817 -0.1580 -0.1618  0.3016
  111MOL    C3935459   2.729   1.659   1.557  0.2980 -1.0941  0.2306
  111MOL    C4035460   2.755   1.696   1.424  0.0468  0.1389 -0.0589
  111MOL    C4135461   2.734   1.830   1.388  0.1924  0.4568 -0.8865
  111MOL    C4235462   2.792   2.141   1.405 -0.0665  0.1988  0.5625
  111MOL    H4335463   2.603   2.127   1.508  0.6333  1.8369 -1.0110
  111MOL    H4435464   2.622   1.946   1.686 -1.0813  1.4080 -0.7232
  111MOL    H4535465   2.736   1.555   1.585  0.2645 -1.0329  0.4665
  111MOL    H4635466   2.786   1.623   1.351  0.5901 -0.2209  0.5229
  111MOL    H4735467   2.766   1.861   1.289  0.7304 -2.0863 -1.5660
  111MOL    H4835468   2.832   2.114   1.307 -3.1098  2.5678 -1.3809
  111MOL    H4935469   2.777   2.247   1.386 -0.2113  0.4173  1.8508
  111MOL    C5035470   2.915   2.125   1.502  0.4279  0.3324 -0.4279
  111MOL    C5135471   3.044   2.157   1.435  0.2960 -0.5721 -0.6241
  111MOL    C5235472   3.143   2.062   1.421 -0.4433 -0.1160  0.6269
  111MOL    C5335473   3.258   2.093   1.347  0.3613 -0.0297  0.0118
  111MOL   Cl5435474   3.366   1.966   1.328 -0.3659  0.0837 -0.3446
  111MOL    C5535475   3.279   2.221   1.298 -0.3663  0.3909  0.8439
  111MOL    C5635476   3.179   2.319   1.310 -0.1368 -0.2488  0.6664
  111MOL    C5735477   3.060   2.286   1.379  0.3137  0.5062  0.4027
  111MOL    C5835478   2.903   2.204   1.634 -0.0385  0.7917  0.1358
  111MOL    H5935479   2.909   2.022   1.535 -0.5756  0.7578  0.7498
  111MOL    H6035480   3.127   1.963   1.461  0.3653 -1.3011 -1.8694
  111MOL    H6135481   3.363   2.234   1.231 -2.5884  3.3832 -1.5454
  111MOL    H6235482   3.195   2.420   1.277 -1.1954 -0.8770 -1.9086
  111MOL    H6335483   2.991   2.368   1.391  0.8914  0.8142  1.6766
  111MOL    H6435484   2.918   2.309   1.609 -0.7701  0.9819  0.4768
  111MOL    H6535485   2.798   2.206   1.661 -0.5271 -2.2103 -1.2926
  111MOL    C6635486   2.991   2.148   1.745 -0.3628 -0.0688  0.2192
  111MOL    C6735487   3.037   2.262   1.835  0.9179 -0.0457 -0.3364
  111MOL    C6835488   2.951   2.329   1.930 -0.7192 -0.5744 -0.1336
  111MOL    C6935489   3.006   2.430   2.012 -0.2877  0.5146  0.1713
  111MOL   Cl7035490   2.906   2.485   2.143  0.2329 -0.1601  0.0816
  111MOL    C7135491   3.135   2.480   1.985  0.4744 -0.2859  0.1841
  111MOL    C7235492   3.216   2.416   1.891 -0.1594 -0.6339 -0.4000
  111MOL    C7335493   3.167   2.308   1.813 -0.1685  0.3702 -0.0001
  111MOL    C7435494   2.918   2.027   1.828  0.0544  0.4740 -0.2735
  111MOL    H7535495   3.079   2.112   1.693 -0.4823  1.3481 -0.9776
  111MOL    H7635496   2.848   2.307   1.954 -0.9468 -1.7751 -2.1449
  111MOL    H7735497   3.179   2.565   2.034 -1.5711  0.2458  1.1274
  111MOL    H7835498   3.314   2.460   1.881  0.1852 -1.2090  0.4869
  111MOL    H7935499   3.236   2.275   1.737  0.5586  0.8967  0.4179
  111MOL    H8035500   2.840   2.070   1.890 -0.6540 -3.3355  1.5729
  111MOL    H8135501   2.866   1.962   1.758  1.3932  1.1829 -1.9626
  111MOL    C8235502   3.014   1.936   1.908  0.1470 -0.6757  0.3682
  111MOL    C8335503   3.146   1.905   1.841 -0.7025 -0.0097 -0.2997
  111MOL    C8435504   3.264   1.979   1.866 -0.1025 -0.1217 -0.1324
  111MOL    C8535505   3.384   1.944   1.811  0.1215 -0.3796  0.5222
  111MOL   Cl8635506   3.540   2.009   1.870 -0.3384 -0.1684  0.1009
  111MOL    C8735507   3.381   1.844   1.713 -0.1918 -0.2446  0.2373
  111MOL    C8835508   3.267   1.778   1.670 -0.6814  0.1916 -0.0101
  111MOL    C8935509   3.151   1.807   1.740  0.8252 -0.3890  0.3393
  111MOL    C9035510   3.040   1.984   2.052 -0.0379  0.3245 -0.0433
  111MOL    H9135511   2.966   1.838   1.917 -0.2632 -0.3669  1.7524
  111MOL    H9235512   3.271   2.054   1.944  0.3462 -0.6566  0.3521
  111MOL    H9335513   3.471   1.812   1.662 -1.1635 -1.2505 -0.8629
  111MOL    H9435514   3.276   1.703   1.593  1.7444  0.5902 -0.1621
  111MOL    H9535515   3.064   1.753   1.706  0.9049  0.3268 -1.0224
  111MOL    H9635516   3.117   1.921   2.096 -0.7458 -1.4113 -1.2401
  111MOL    H9735517   3.077   2.086   2.040 -1.0053  0.8615  1.3708
  111MOL    C9835518   2.918   1.981   2.152  0.1200 -0.0113 -0.1220
  111MOL    C9935519   2.863   1.844   2.198 -0.1691 -0.0528  0.2195
  111MOL   C10035520   2.948   1.756   2.261  0.4082 -0.0362 -0.3861
  111MOL   C10135521   2.904   1.643   2.326  0.3004 -0.3755 -0.6210
  111MOL  Cl10235522   3.011   1.536   2.399  0.0457  0.8278  0.5130
  111MOL   C10335523   2.769   1.603   2.315  0.5800  0.1982  0.0033
  111MOL   C10435524   2.679   1.683   2.239  0.6532  0.1244  0.2776
  111MOL   C10535525   2.726   1.801   2.174  0.1523  0.5248 -0.2680
  111MOL   C10635526   2.974   2.071   2.264 -0.0620 -0.5337 -0.0644
  111MOL   H10735527   2.832   2.034   2.111 -0.1098 -1.4951 -1.6247
  111MOL   H10835528   3.053   1.784   2.264  0.8571 -1.6621 -0.4823
  111MOL   H10935529   2.733   1.508   2.353 -0.8773 -0.7579 -3.5901
  111MOL   H11035530   2.578   1.649   2.220  0.5362  0.1980  0.7706
  111MOL   H11135531   2.656   1.862   2.118  0.5594  1.4415  0.2111
  111MOL   H11235532   3.078   2.042   2.281  0.7809  3.0338  1.3134
  111MOL   H11335533   2.976   2.175   2.230  2.3490 -1.3715 -2.6594
  111MOL   C11435534   2.919   2.067   2.405 -0.3190  0.2599 -0.6924
  111MOL   C11535535   3.029   2.080   2.515 -0.4102 -0.2290 -0.0204
  111MOL   C11635536   3.068   1.967   2.589 -0.4943 -0.1242 -0.2544
  111MOL   C11735537   3.152   1.982   2.708 -0.6265  0.5513 -0.0126
  111MOL  Cl11835538   3.167   1.860   2.826  0.0443 -0.1773  0.3104
  111MOL   C11935539   3.222   2.098   2.728 -0.5799  0.3800 -0.0594
  111MOL   C12035540   3.196   2.212   2.643 -0.1726  0.3134 -0.3006
  111MOL   C12135541   3.095   2.208   2.540 -0.5406  0.7058  0.0821
  111MOL   C12235542   2.805   2.168   2.425  0.4206  0.8666  0.9620
  111MOL   H12335543   2.879   1.968   2.428  0.8160 -0.5152 -1.9998
  111MOL   H12435544   3.025   1.869   2.579  1.3546 -0.7998 -1.7016
  111MOL   H12535545   3.288   2.109   2.813  1.8501 -2.9948 -1.3969
  111MOL   H12635546   3.249   2.302   2.670  0.2177 -0.8896  3.2876
  111MOL   H12735547   3.063   2.294   2.483 -0.5123  0.7948  0.2013
  111MOL   H12835548   2.847   2.266   2.448  1.7076 -0.3552  4.1668
  111MOL   H12935549   2.748   2.170   2.332 -3.4549  0.4417  3.1937
  111MOL   C13035550   2.700   2.141   2.545  0.5932 -0.0766 -0.0267
  111MOL   C13135551   2.741   2.054   2.666 -0.2515 -0.0279 -0.0487
  111MOL   C13235552   2.812   2.103   2.779 -0.6166  0.6602 -0.3062
  111MOL   C13335553   2.861   2.017   2.878  0.3856 -0.3848 -0.7751
  111MOL  Cl13435554   2.934   2.088   3.022 -0.0972 -0.0613 -0.0983
  111MOL   C13535555   2.831   1.877   2.867 -0.0061 -0.1843  0.5473
  111MOL   C13635556   2.751   1.829   2.764  0.4697  0.2239  0.4632
  111MOL   C13735557   2.699   1.918   2.666  0.9971  0.1143  0.5435
  111MOL   C13835558   2.626   2.273   2.587 -0.7832  0.2031 -0.0431
  111MOL   H13935559   2.621   2.096   2.485  0.4874  0.3554 -0.2144
  111MOL   H14035560   2.832   2.209   2.783 -0.9761  0.6350  3.5036
  111MOL   H14135561   2.860   1.809   2.946 -0.9496  0.5614  1.5588
  111MOL   H14235562   2.717   1.727   2.756 -0.6409  0.5328  1.2321
  111MOL   H14335563   2.652   1.881   2.576  2.3844  2.7406 -1.3186
  111MOL   H14435564   2.706   2.324   2.640 -2.3576  1.9608  0.6702
  111MOL   H14535565   2.595   2.335   2.503 -2.0296  1.3496  1.2363
  111MOL   C14635566   2.510   2.255   2.696 -0.1969 -0.2070  0.3915
  111MOL   C14735567   2.484   2.391   2.756  0.6984 -0.2717 -0.0064
  111MOL   C14835568   2.459   2.510   2.694  0.0246 -0.0392  0.0477
  111MOL   C14935569   2.437   2.632   2.768 -0.4006  0.4689  0.4692
  111MOL  Cl15035570   2.401   2.774   2.676  0.4038  0.2572 -0.0071
  111MOL   C15135571   2.450   2.636   2.906 -0.1622  0.3915  0.0991
  111MOL   C15235572   2.470   2.514   2.971 -0.1245  0.0128 -0.1245
  111MOL   C15335573   2.481   2.391   2.900 -1.0059 -0.3037 -0.0348
  111MOL   C15435574   2.390   2.173   2.638  0.4952  0.5264 -0.2068
  111MOL   H15535575   2.552   2.205   2.783  2.7493 -0.4702 -1.0994
  111MOL   H15635576   2.458   2.506   2.586 -0.2880  0.3102  0.0387
  111MOL   H15735577   2.447   2.722   2.970 -0.9004 -0.7264  1.5927
  111MOL   H15835578   2.477   2.513   3.079 -0.3088 -0.0898 -0.1126
  111MOL   H15935579   2.510   2.308   2.962  0.4382  1.7660  2.1450
  111MOL   H16035580   2.358   2.242   2.560 -0.9316 -0.8766 -0.8854
  111MOL   H16135581   2.425   2.087   2.582 -1.5583  0.3250 -1.1944
  111MOL   C16235582   2.271   2.140   2.733  0.6417 -0.2473 -0.1233
  111MOL   C16335583   2.194   2.261   2.790 -0.3772 -0.4447  0.0168
  111MOL   C16435584   2.172   2.286   2.928 -0.5186 -0.4924  0.6757
  111MOL   C16535585   2.103   2.406   2.965  0.4204 -0.3956 -0.1188
  111MOL  Cl16635586   2.073   2.442   3.131 -0.0851  0.3387 -0.3998
  111MOL   C16735587   2.051   2.497   2.866 -0.6411  0.1934  0.5609
  111MOL   C16835588   2.064   2.462   2.729 -0.1178 -0.3478 -0.5615
  111MOL   C16935589   2.134   2.347   2.695  0.6449  0.0179 -0.2964
  111MOL   C17035590   2.173   2.024   2.698  0.1597 -0.1505 -0.0669
  111MOL   H17135591   2.312   2.100   2.825  0.6993 -0.4693 -0.2446
  111MOL   H17235592   2.210   2.226   3.009 -4.8977 -2.4539  1.3653
  111MOL   H17335593   1.993   2.582   2.900  0.2464  0.9576  0.1830
  111MOL   H17435594   2.022   2.525   2.652 -0.6524  0.2002  0.1583
  111MOL   H17535595   2.142   2.320   2.591 -1.3711 -2.3977  0.1454
  111MOL   H17635596   2.227   1.936   2.663 -2.5515 -1.9563  0.1149
  111MOL   H17735597   2.135   1.985   2.792  0.6321  0.0464  0.2045
  111MOL   C17835598   2.054   2.041   2.599 -0.2232  0.0254  0.5670
  111MOL   C17935599   2.102   2.064   2.453 -0.2890 -1.1454 -0.3721
  111MOL   C18035600   2.198   1.982   2.401  0.1442  0.2404  0.2279
  111MOL   C18135601   2.239   2.001   2.267 -0.2931 -0.2138 -0.2843
  111MOL  Cl18235602   2.374   1.918   2.195  0.3222 -0.1282  0.1231
  111MOL   C18335603   2.188   2.108   2.185  0.8499 -0.5759 -0.5339
  111MOL   C18435604   2.096   2.193   2.244 -0.2955  0.6940  0.8060
  111MOL   C18535605   2.057   2.171   2.377  0.2127  0.0599  0.9981
  111MOL   C18635606   1.958   1.929   2.598  0.2726 -0.5277  0.7022
  111MOL   H18735607   1.995   2.128   2.628 -0.8695  0.2063 -1.2550
  111MOL   H18835608   2.247   1.903   2.456 -0.7613 -0.0704  0.5936
  111MOL   H18935609   2.237   2.124   2.090 -1.1972  1.0703 -1.3368
  111MOL   H19035610   2.059   2.267   2.175  0.7003 -1.2689 -1.9027
  111MOL   H19135611   1.980   2.238   2.413 -0.6675  0.6223 -1.7398
  111MOL   H19235612   1.910   1.931   2.500 -0.1023  1.6384  0.9164
  111MOL   H19335613   2.005   1.831   2.605 -1.2633 -1.3368 -0.0900
  111MOL   C19435614   1.831   1.943   2.692 -0.8113  0.2749 -0.2003
  111MOL   C19535615   1.863   1.975   2.843 -0.2193  0.3635  0.1549
  111MOL   C19635616   1.920   1.863   2.908 -0.0424  0.5438 -0.1720
  111MOL   C19735617   1.964   1.876   3.044 -0.6114  0.1599  0.8312
  111MOL  Cl19835618   1.997   1.729   3.123  0.0933  0.0715 -0.1109
  111MOL   C19935619   1.946   1.998   3.109 -0.3978  0.4353  0.5513
  111MOL   C20035620   1.890   2.108   3.044 -0.2045 -0.0844 -0.7769
  111MOL   C20135621   1.857   2.102   2.914 -0.3034 -0.2703  0.3342
  111MOL   C20235622   1.723   2.028   2.619 -0.1290 -0.2948 -0.0328
  111MOL   H20335623   1.796   1.840   2.697  1.7661 -0.5613  2.2220
  111MOL   H20435624   1.931   1.769   2.856 -0.9008  0.5583 -0.3800
  111MOL   H20535625   1.983   2.007   3.210 -1.4338  0.2005  0.9581
  111MOL   H20635626   1.878   2.196   3.105 -1.0427  0.5071 -1.7947
  111MOL   H20735627   1.807   2.193   2.884 -1.1438 -0.6103  0.6776
  111MOL   H20835628   1.758   2.131   2.623  1.2980 -0.7394 -0.8595
  111MOL   H20935629   1.719   2.006   2.513 -1.7589 -1.8862  0.3390
  111MOL   C21035630   1.582   2.026   2.675  0.4739  0.6539 -0.1083
  111MOL   C21135631   1.503   2.139   2.617 -0.8645 -0.5028 -0.4532
  111MOL   C21235632   1.487   2.255   2.697  0.6470 -0.0220 -0.1415
  111MOL   C21335633   1.385   2.349   2.659 -0.2518 -0.2081  0.3396
  111MOL  Cl21435634   1.368   2.484   2.765  0.1680  0.1815  0.1767
  111MOL   C21535635   1.317   2.332   2.540 -0.6475 -0.1627 -0.0646
  111MOL   C21635636   1.357   2.235   2.453 -0.0553  0.1198  0.5058
  111MOL   C21735637   1.443   2.132   2.489 -0.2567  0.7627 -0.9070
  111MOL   C21835638   1.514   1.885   2.665 -0.3651 -0.1969  0.0964
  111MOL   H21935639   1.585   2.052   2.781 -0.0332 -0.2868  0.1512
  111MOL   H22035640   1.544   2.273   2.787  0.5885 -0.4013 -0.0288
  111MOL   H22135641   1.236   2.397   2.509  1.0157  2.3654  0.6993
  111MOL   H22235642   1.321   2.248   2.352  1.2662  0.7340  0.0988
  111MOL   H22335643   1.461   2.054   2.417 -2.3748  1.0106 -1.7344
  111MOL   H22435644   1.447   1.886   2.579 -0.0697  0.4204 -0.1333
  111MOL   H22535645   1.589   1.807   2.651  0.5601  0.3077  2.0709
  111MOL   C22635646   1.420   1.843   2.782 -0.0120  0.1601  0.9272
  111MOL   C22735647   1.323   1.951   2.822  0.3754 -0.6816 -0.3803
  111MOL   C22835648   1.202   1.968   2.750  0.0187  0.0324 -0.5448
  111MOL   C22935649   1.114   2.068   2.790  0.3010 -0.3389  0.5058
  111MOL  Cl23035650   0.953   2.087   2.719  0.0753 -0.0714  0.3979
  111MOL   C23135651   1.153   2.156   2.898  0.9117  0.1053 -0.1882
  111MOL   C23235652   1.266   2.136   2.973 -0.0207 -0.6819  0.4030
  111MOL   C23335653   1.351   2.033   2.934 -0.2864  0.4663  0.6456
  111MOL   C23435654   1.367   1.700   2.769  0.1328 -0.4507 -0.3913
  111MOL   H23535655   1.482   1.835   2.871 -0.1010  0.8216  1.0512
  111MOL   H23635656   1.166   1.905   2.670  0.2764 -0.1599 -0.5089
  111MOL   H23735657   1.088   2.239   2.919 -0.0558  0.0659 -2.7486
  111MOL   H23835658   1.286   2.193   3.063 -2.8484 -0.6571  1.0812
  111MOL   H23935659   1.438   2.024   2.999 -0.2738 -0.6163  0.4902
  111MOL   H24035660   1.313   1.673   2.679 -0.6528 -0.4776  0.0827
  111MOL   H24135661   1.458   1.641   2.760 -0.4101 -1.4482  0.4775
  111MOL   C24235662   1.289   1.641   2.890  0.5986 -0.2283  0.1291
  111MOL   C24335663   1.140   1.669   2.889  0.7099  0.0731 -0.1062
  111MOL   C24435664   1.075   1.721   3.006  0.2451 -0.1690  0.3013
  111MOL   C24535665   0.941   1.741   3.013 -0.2897 -0.1578 -0.2060
  111MOL  Cl24635666   0.897   1.794   3.169  0.1200 -0.1357  0.0465
  111MOL   C24735667   0.858   1.704   2.905 -0.3282  0.5624  0.3332
  111MOL   C24835668   0.920   1.649   2.790  0.3852  0.5253 -0.2703
  111MOL   C24935669   1.062   1.631   2.784  0.2284  0.1170  0.1543
  111MOL   C25035670   1.326   1.489   2.904  0.1983  0.3377 -0.3984
  111MOL   H25135671   1.333   1.682   2.981  1.0081 -0.9768  0.2781
  111MOL   H25235672   1.136   1.749   3.090  1.2036  2.2523 -1.1610
  111MOL   H25335673   0.752   1.721   2.918 -0.1662  0.9502  1.2320
  111MOL   H25435674   0.858   1.607   2.713  1.0860  0.1082 -0.6084
  111MOL   H25535675   1.103   1.571   2.704 -3.6661 -2.6837  0.0959
  111MOL   H25635676   1.312   1.443   2.807 -0.8386 -0.6961  0.2396
  111MOL   H25735677   1.432   1.473   2.925  0.0202  0.0873  0.3248
  111MOL   C25835678   1.252   1.416   3.011  0.1675 -0.8256 -0.3595
  111MOL   C25935679   1.268   1.265   3.005  0.2970 -0.3866  0.4728
  111MOL   C26035680   1.387   1.202   3.052 -0.3129 -0.5184  0.7579
  111MOL   C26135681   1.398   1.063   3.060 -0.2023 -0.5411  0.3184
  111MOL  Cl26235682   1.544   0.998   3.110  0.0270  0.1310 -0.1644
  111MOL   C26335683   1.285   0.984   3.025  0.4747 -0.4703  0.7964
  111MOL   C26435684   1.169   1.045   2.974 -0.2600 -0.6380 -0.6419
  111MOL   C26535685   1.156   1.185   2.977 -0.7521 -0.3847 -0.9942
  111MOL   C26635686   1.284   1.469   3.150 -0.5691 -0.7953  0.4638
  111MOL   H26735687   1.146   1.439   2.999  0.1600 -0.3363  0.5916
  111MOL   H26835688   1.473   1.260   3.080 -0.7118 -0.1682  1.2672
  111MOL   H26935689   1.283   0.877   3.034  0.9857 -0.4784  0.8151
  111MOL   H27035690   1.095   0.978   2.932 -1.7424  0.3402  0.3402
  111MOL   H27135691   1.063   1.226   2.941  0.5953  1.3153 -2.6568
  111MOL   H27235692   1.383   1.513   3.151 -0.8239 -0.1452 -1.0076
  111MOL   H27335693   1.224   1.560   3.160  1.1283  0.3740  0.1446
  111MOL   C27435694   1.259   1.387   3.277 -0.6495 -0.3680 -0.1606
  111MOL   C27535695   1.309   1.472   3.401  0.0868  0.7395  0.1579
  111MOL   C27635696   1.418   1.430   3.475 -1.0193 -0.8919 -0.6138
  111MOL   C27735697   1.463   1.508   3.579  0.2437  0.9510 -0.5271
  111MOL  Cl27835698   1.600   1.454   3.680  0.0698  0.0958 -0.3278
  111MOL   C27935699   1.397   1.626   3.617  0.2409 -0.0006 -0.2106
  111MOL   C28035700   1.282   1.666   3.552 -0.5500  0.1240  0.1306
  111MOL   C28135701   1.240   1.589   3.440  0.7542  0.1251  0.4318
  111MOL   C28235702   1.108   1.339   3.298 -0.5852 -0.5429  0.5784
  111MOL   H28335703   1.328   1.303   3.288  0.1557  0.3848  0.5508
  111MOL   H28435704   1.473   1.341   3.449 -0.9949 -0.4613 -2.1215
  111MOL   H28535705   1.437   1.677   3.704 -0.9791  2.7825 -1.2461
  111MOL   H28635706   1.234   1.760   3.574 -1.9885 -0.4088 -0.6859
  111MOL   H28735707   1.158   1.633   3.385  0.7331 -2.4255 -1.6837
  111MOL   H28835708   1.053   1.402   3.368 -3.0334 -1.0426 -0.8062
  111MOL   H28935709   1.064   1.330   3.198 -1.9959  1.5185  0.9543
  111MOL   C29035710   1.097   1.198   3.363 -0.4005  0.0682  0.1609
  111MOL   C29135711   1.200   1.169   3.475  0.1209  0.3012 -0.2244
  111MOL   C29235712   1.188   1.234   3.601 -0.1881 -0.3678  0.5866
  111MOL   C29335713   1.282   1.205   3.704  0.0272  0.1047  0.4559
  111MOL  Cl29435714   1.276   1.299   3.846 -0.0580  0.2939 -0.1656
  111MOL   C29535715   1.391   1.111   3.684  1.2726  0.3511 -0.2769
  111MOL   C29635716   1.394   1.049   3.563 -0.1725 -0.2317  0.0837
  111MOL   C29735717   1.306   1.077   3.458 -1.0670 -0.1896  0.5591
  111MOL   C29835718   0.956   1.170   3.407 -0.2537 -0.6043 -0.0892
  111MOL   H29935719   1.136   1.130   3.288 -0.1657 -1.3943  1.5864
  111MOL   H30035720   1.109   1.305   3.619 -1.3471 -1.5159  0.0577
  111MOL   H30135721   1.464   1.072   3.754  0.3232 -3.5538 -1.3233
  111MOL   H30235722   1.464   0.972   3.535  0.2039  0.0583  0.2211
  111MOL   H30335723   1.315   1.022   3.366 -2.1467 -1.0800  0.9747
  111MOL   H30435724   0.947   1.179   3.516 -1.2694  0.6024 -0.2606
  111MOL   H30535725   0.893   1.246   3.361  0.3611 -0.3223 -0.4756
  111MOL   C30635726   0.916   1.025   3.373 -0.5747  0.3930 -0.4073
  111MOL   C30735727   0.999   0.910   3.427  0.5682 -0.4965 -0.3293
  111MOL   C30835728   1.080   0.831   3.343 -0.0621  0.1029 -0.4896
  111MOL   C30935729   1.168   0.737   3.400  0.2297  0.0742 -0.4025
  111MOL  Cl31035730   1.296   0.671   3.300  0.2352  0.1541 -0.0725
  111MOL   C31135731   1.163   0.707   3.540  0.5062  0.7611 -0.1901
  111MOL   C31235732   1.075   0.778   3.622  0.0268 -0.5511  0.0593
  111MOL   C31335733   0.995   0.885   3.564 -0.8632  0.1884  0.0361
  111MOL   C31435734   0.766   1.002   3.394  0.3690 -0.3895  0.4205
  111MOL   H31535735   0.930   1.023   3.265  2.6172 -3.5840 -0.0514
  111MOL   H31635736   1.090   0.845   3.236 -0.4525  0.8079 -0.4390
  111MOL   H31735737   1.236   0.639   3.582 -1.8287 -1.0784  1.0435
  111MOL   H31835738   1.080   0.755   3.727  1.5460  0.7700  0.2850
  111MOL   H31935739   0.921   0.929   3.629 -0.1419  0.7259  0.5066
  111MOL   H32035740   0.724   0.931   3.323  0.3296  0.5033 -0.4504
  111MOL   H32135741   0.745   0.963   3.494 -0.4235 -0.0154  0.4000
  111MOL   H32235742   0.701   1.087   3.377  0.9349  0.2678  1.4695
  112MOL     C135743   4.894   0.233   6.214 -0.7030 -0.1090 -0.7374
  112MOL     C235744   4.909   0.380   6.193  0.7239 -0.0725 -0.0215
  112MOL     C335745   4.891   0.459   6.309  0.0869 -0.0341 -0.2912
  112MOL     C435746   4.883   0.599   6.300 -0.2199 -0.3333  0.6793
  112MOL    Cl535747   4.865   0.691   6.444  0.2485  0.1070 -0.2618
  112MOL     C635748   4.911   0.666   6.175 -0.2130 -0.2093 -0.1534
  112MOL     C735749   4.925   0.584   6.057 -0.9235  0.0459  0.7235
  112MOL     C835750   4.930   0.446   6.071  0.0302 -0.3360  0.2812
  112MOL     C935751   4.764   0.176   6.151 -0.1673  0.0493 -0.1663
  112MOL    H1035752   4.888   0.210   6.321 -1.0007  0.8264 -0.5413
  112MOL    H1135753   4.894   0.419   6.409 -1.0464 -2.1097 -1.0552
  112MOL    H1235754   4.923   0.772   6.162  2.7462 -0.7675 -2.4242
  112MOL    H1335755   4.957   0.631   5.966  3.7911  0.3229  2.3932
  112MOL    H1435756   4.940   0.386   5.983 -2.6186  0.4466 -0.5883
  112MOL    H1535757   4.687   0.230   6.206  1.1128 -0.3197  2.0257
  112MOL    H1635758   4.767   0.211   6.048  0.6907  2.0768  0.5204
  112MOL    H1735759   4.981   0.172   6.188 -2.3554 -2.0370 -1.8370
  112MOL    C1835760   4.752   0.024   6.162 -0.4935 -0.6775 -0.1840
  112MOL    C1935761   4.721   8.400   6.300  0.1840 -0.7153  0.0279
  112MOL    C2035762   4.758   8.269   6.332  0.3337 -0.3924 -0.2693
  112MOL    C2135763   4.736   8.221   6.459  0.1934 -0.3854 -0.4415
  112MOL   Cl2235764   4.792   8.062   6.498 -0.1899  0.0017 -0.1485
  112MOL    C2335765   4.675   8.299   6.559 -0.0496  0.5442  0.5571
  112MOL    C2435766   4.618   8.422   6.528 -0.0321  0.1355 -0.0803
  112MOL    C2535767   4.654   0.039   6.399  0.1249 -0.6819  0.6440
  112MOL    C2635768   4.638   8.420   6.068  0.7121 -0.1768 -0.2768
  112MOL    H2735769   4.842   8.410   6.125  0.0164 -0.0563  0.2154
  112MOL    H2835770   4.807   8.207   6.258  0.5523 -0.0988 -0.3681
  112MOL    H2935771   4.655   8.251   6.654  1.9790  1.6807  1.5997
  112MOL    H3035772   4.571   0.047   6.603  1.4100  1.5791 -0.2870
  112MOL    H3135773   4.615   0.135   6.368  1.2290 -0.7014 -0.8497
  112MOL    H3235774   4.593   8.332   6.114 -1.0176  2.4241  3.2329
  112MOL    H3335775   4.559   0.059   6.067  0.4480 -0.4129  1.5148
  112MOL    C3435776   4.676   8.376   5.921  0.4913  0.7440  0.1882
  112MOL    C3535777   4.798   8.283   5.913 -0.1909  0.8613 -0.5501
  112MOL    C3635778   4.920   8.336   5.874 -0.5350  0.0965 -0.2531
  112MOL    C3735779   5.035   8.258   5.859 -0.3717  1.0880  0.1923
  112MOL   Cl3835780   5.191   8.325   5.831  0.0248 -0.1285 -0.1302
  112MOL    C3935781   5.023   8.119   5.879  0.0079 -0.8006  0.2790
  112MOL    C4035782   4.898   8.064   5.920  0.2246  0.1520  0.3203
  112MOL    C4135783   4.783   8.140   5.933 -0.6189  0.5893  0.4257
  112MOL    C4235784   4.552   8.331   5.837 -0.4952 -0.7513 -0.5338
  112MOL    H4335785   4.705   0.026   5.860 -2.0092  1.7777  0.4264
  112MOL    H4435786   4.928   0.009   5.871 -1.6499  0.1410 -2.9488
  112MOL    H4535787   5.107   8.051   5.870 -0.5643 -1.6309  1.1347
  112MOL    H4635788   4.907   7.958   5.938  1.3353 -0.1802 -1.9380
  112MOL    H4735789   4.688   8.095   5.956 -0.0958  0.3752  2.2295
  112MOL    H4835790   4.499   8.255   5.893 -0.0277 -0.6021  0.1198
  112MOL    H4935791   4.483   8.414   5.823  0.2511  0.0191  0.2617
  112MOL    C5035792   4.580   8.287   5.690 -0.7719  0.1063 -0.5319
  112MOL    C5135793   4.552   8.136   5.684 -0.0353  0.6088 -0.4005
  112MOL    C5235794   4.422   8.084   5.715 -0.9178 -0.0009  0.4079
  112MOL    C5335795   4.401   7.944   5.716  0.0019 -0.1196 -0.1063
  112MOL   Cl5435796   4.248   7.873   5.760 -0.0882  0.4770  0.4716
  112MOL    C5535797   4.503   7.856   5.683  0.1729 -0.7911 -0.1564
  112MOL    C5635798   4.630   7.903   5.656  0.5331  0.3940 -0.6515
  112MOL    C5735799   4.653   8.045   5.660 -0.4885 -0.3002 -0.2045
  112MOL    C5835800   4.496   8.373   5.592 -0.3109 -0.6108  0.0394
  112MOL    H5935801   4.687   8.299   5.673 -0.7932 -0.1236 -0.8355
  112MOL    H6035802   4.338   8.150   5.735 -0.2048  1.7331 -2.0201
  112MOL    H6135803   4.483   7.750   5.675  1.8592 -1.1497  0.1836
  112MOL    H6235804   4.717   7.842   5.638 -0.3399 -1.4261  1.1452
  112MOL    H6335805   4.754   8.084   5.660  0.3235 -2.1311  4.0471
  112MOL    H6435806   4.512   8.322   5.498 -0.1283  1.5819 -1.1562
  112MOL    H6535807   4.389   8.356   5.602 -0.4755 -0.6575 -1.6532
  112MOL    C6635808   4.521   0.092   5.585 -0.6846  0.6795  0.3913
  112MOL    C6735809   4.669   0.137   5.592 -0.0781  0.0949  0.3942
  112MOL    C6835810   4.774   0.056   5.541 -0.0083  0.5401  0.4559
  112MOL    C6935811   4.912   0.105   5.546 -0.4885  0.4624 -0.5648
  112MOL   Cl7035812   5.041   8.435   5.506  0.0624 -0.0251  0.0304
  112MOL    C7135813   4.937   0.234   5.602  0.0441 -0.2756  0.6637
  112MOL    C7235814   4.831   0.315   5.638 -0.1224  0.6012  0.1298
  112MOL    C7335815   4.698   0.268   5.640 -0.1059  0.0610 -0.9167
  112MOL    C7435816   4.464   0.147   5.457 -0.8820 -0.6202  0.3286
  112MOL    H7535817   4.472   0.128   5.675  0.4278  1.5682  0.6486
  112MOL    H7635818   4.755   8.399   5.487  1.3118  1.6411 -1.9486
  112MOL    H7735819   5.033   0.282   5.611  0.3769 -0.3611 -2.0795
  112MOL    H7835820   4.846   0.413   5.681 -0.8336  0.1735  1.3525
  112MOL    H7935821   4.621   0.338   5.669 -0.2440 -0.8630  0.9719
  112MOL    H8035822   4.495   0.251   5.455  1.2364 -1.2209  0.6285
  112MOL    H8135823   4.517   0.109   5.369 -0.2258 -1.5778  1.1307
  112MOL    C8235824   4.312   0.145   5.438  0.4020  0.4399 -0.2406
  112MOL    C8335825   4.240   0.197   5.559  0.2889 -0.0758  0.5924
  112MOL    C8435826   4.231   0.337   5.577 -0.7261 -0.1366  0.2195
  112MOL    C8535827   4.152   0.394   5.676 -0.3548 -0.2805 -0.1676
  112MOL   Cl8635828   4.120   0.567   5.672  0.0266  0.7234 -0.1176
  112MOL    C8735829   4.087   0.309   5.764 -0.7073  0.3379  0.4763
  112MOL    C8835830   4.100   0.166   5.750  0.1815 -0.3083  0.6591
  112MOL    C8935831   4.180   0.108   5.651 -0.2603 -0.0165  0.1616
  112MOL    C9035832   4.277   0.211   5.300  0.0550 -0.0176 -0.7659
  112MOL    H9135833   4.280   0.041   5.441  1.8464 -0.0369 -0.8716
  112MOL    H9235834   4.285   0.392   5.502  1.1603 -4.7541 -2.0124
  112MOL    H9335835   4.025   0.357   5.838  1.1161  3.3540  0.1557
  112MOL    H9435836   4.053   0.105   5.826  0.1366 -3.0745 -1.5239
  112MOL    H9535837   4.179   0.000   5.644  1.7338 -0.1208  1.1407
  112MOL    H9635838   4.169   0.203   5.302  0.0476  0.2024  1.0850
  112MOL    H9735839   4.298   0.318   5.295  0.0136  0.0229 -0.1175
  112MOL    C9835840   4.329   0.149   5.168 -0.7761  0.1993 -0.8024
  112MOL    C9935841   4.339   8.430   5.175 -1.0571 -0.0830 -0.0845
  112MOL   C10035842   4.461   8.367   5.190 -1.0123 -0.1014 -0.1389
  112MOL   C10135843   4.471   8.232   5.193 -0.3275  1.0362 -0.2838
  112MOL  Cl10235844   4.623   8.150   5.213  0.0377 -0.1721  0.1473
  112MOL   C10335845   4.354   8.159   5.183 -0.2450  0.4669 -0.2810
  112MOL   C10435846   4.223   8.207   5.185 -0.2716 -0.1242  0.0509
  112MOL   C10535847   4.219   8.348   5.157 -0.6139 -0.2433 -0.0939
  112MOL   C10635848   4.246   0.223   5.058 -0.3211 -0.4001 -0.0412
  112MOL   H10735849   4.429   0.187   5.144 -0.5042  0.0170  0.0372
  112MOL   H10835850   4.550   8.429   5.197 -2.1507  2.0420 -3.6318
  112MOL   H10935851   4.354   8.051   5.186 -0.7143  0.4375 -1.2034
  112MOL   H11035852   4.131   8.151   5.171 -1.6736  2.2543 -0.5892
  112MOL   H11135853   4.133   8.400   5.120 -0.8656  1.5198  2.8256
  112MOL   H11235854   4.143   0.206   5.090  0.5796 -0.0540  3.2340
  112MOL   H11335855   4.260   0.331   5.060 -4.0113  0.1277  0.8830
  112MOL   C11435856   4.263   0.167   4.918  0.2359 -0.5497 -0.0254
  112MOL   C11535857   4.155   0.225   4.825  0.1592 -0.8640  0.0931
  112MOL   C11635858   4.066   0.136   4.764 -0.7276 -0.1069 -0.2422
  112MOL   C11735859   3.974   0.179   4.670  0.3695 -0.4054 -0.5879
  112MOL  Cl11835860   3.883   0.068   4.581 -0.0225  0.1720  0.0174
  112MOL   C11935861   3.971   0.315   4.640  0.7257  0.3490  0.1624
  112MOL   C12035862   4.048   0.415   4.711 -0.2148 -0.1734 -0.0153
  112MOL   C12135863   4.138   0.367   4.808 -0.2355 -0.3291  0.3442
  112MOL   C12235864   4.407   0.194   4.865  0.0549 -0.1228  0.7713
  112MOL   H12335865   4.244   0.059   4.922  1.5777 -0.6949  4.4775
  112MOL   H12435866   4.082   0.031   4.784 -0.5253  0.2745  1.8053
  112MOL   H12535867   3.909   0.353   4.560  1.0330 -2.0237 -1.2493
  112MOL   H12635868   4.035   0.521   4.691  0.0064 -0.0644  0.4036
  112MOL   H12735869   4.201   0.435   4.863 -0.5780  1.6533 -1.6561
  112MOL   H12835870   4.427   0.301   4.857 -0.2687  0.2479  4.1536
  112MOL   H12935871   4.476   0.151   4.937  0.7247 -1.4753 -0.6484
  112MOL   C13035872   4.442   0.135   4.725 -0.0751 -0.1238 -0.0239
  112MOL   C13135873   4.377   0.209   4.608  0.0335  0.0602  0.2497
  112MOL   C13235874   4.408   0.339   4.577 -0.3348  0.2302  0.6836
  112MOL   C13335875   4.350   0.403   4.468 -0.2577  0.1179  0.1045
  112MOL  Cl13435876   4.392   0.567   4.444  0.1204 -0.0022 -0.2601
  112MOL   C13535877   4.272   0.326   4.378 -0.0318  0.0734  0.7157
  112MOL   C13635878   4.248   0.190   4.405  0.2171 -0.3456  0.0896
  112MOL   C13735879   4.295   0.133   4.523 -0.4003  0.1439  0.5945
  112MOL   C13835880   4.595   0.136   4.706  0.3072  0.2057 -0.7065
  112MOL   H13935881   4.402   0.033   4.722 -0.5341  0.0455  0.3160
  112MOL   H14035882   4.470   0.398   4.642 -1.2801  1.3746  0.5571
  112MOL   H14135883   4.228   0.375   4.293 -0.9051 -0.7456  0.6791
  112MOL   H14235884   4.182   0.125   4.349  1.8334 -1.9628  0.0279
  112MOL   H14335885   4.274   0.031   4.550 -1.0995 -0.1960 -1.1304
  112MOL   H14435886   4.614   0.121   4.600  0.0398  0.7922 -0.8356
  112MOL   H14535887   4.631   0.235   4.732 -1.6204  0.5712  0.6870
  112MOL   C14635888   4.693   0.033   4.773 -0.0576  0.7275 -0.9587
  112MOL   C14735889   4.660   8.323   4.757 -0.1683 -0.0667  0.2355
  112MOL   C14835890   4.668   8.272   4.623  0.0909 -0.4314  0.2662
  112MOL   C14935891   4.642   8.137   4.608  0.4719  0.7844  0.5128
  112MOL  Cl15035892   4.651   8.074   4.449 -0.0434 -0.4736  0.4307
  112MOL   C15135893   4.612   8.051   4.715 -0.2656  0.3529 -0.1074
  112MOL   C15235894   4.610   8.100   4.845 -0.0478 -0.4136 -0.1891
  112MOL   C15335895   4.623   8.237   4.866  0.3609  0.4535 -0.3871
  112MOL   C15435896   4.837   0.062   4.737 -0.4304 -0.0239  0.1752
  112MOL   H15535897   4.687   0.043   4.881  1.1819  0.3141 -0.8389
  112MOL   H15635898   4.710   8.331   4.543  1.9209  0.3100  1.7385
  112MOL   H15735899   4.603   7.946   4.695 -0.2082  0.6707 -1.8759
  112MOL   H15835900   4.601   8.027   4.924 -0.9028 -0.2750 -0.1549
  112MOL   H15935901   4.617   8.286   4.962 -0.0622 -1.6776  0.7022
  112MOL   H16035902   4.896   8.405   4.740 -1.5805 -0.7709  0.0827
  112MOL   H16135903   4.848   0.099   4.636 -1.2235 -3.1047 -1.1029
  112MOL   C16235904   4.901   0.168   4.832  0.0457  0.0678  0.4619
  112MOL   C16335905   4.919   0.107   4.969 -0.0636 -0.0067 -0.7249
  112MOL   C16435906   4.971   8.414   4.986  0.1490  0.3037 -0.0296
  112MOL   C16535907   4.958   8.348   5.110 -0.4393 -0.5482 -0.3048
  112MOL  Cl16635908   5.005   8.187   5.132  0.4565  0.4098  0.3683
  112MOL   C16735909   4.887   8.416   5.212  0.3135  0.8692 -0.1165
  112MOL   C16835910   4.837   0.112   5.199  0.2748  0.2379 -0.6593
  112MOL   C16935911   4.859   0.177   5.078 -0.9324  0.8041 -0.4047
  112MOL   C17035912   5.040   0.206   4.771 -0.1507  0.3584 -0.6442
  112MOL   H17135913   4.830   0.250   4.838 -1.2597 -1.1581  2.9672
  112MOL   H17235914   5.030   8.368   4.908  0.3157 -0.8689  0.7623
  112MOL   H17335915   4.856   8.365   5.302  1.4742 -0.6726 -0.5712
  112MOL   H17435916   4.790   0.157   5.285  1.4745  1.4647 -0.6175
  112MOL   H17535917   4.822   0.279   5.069  0.5029  1.5499  1.7735
  112MOL   H17635918   5.108   0.242   4.848 -2.2255  2.5324  0.2525
  112MOL   H17735919   5.087   0.118   4.729  2.4515  0.9235  0.9762
  112MOL   C17835920   5.043   0.321   4.678  0.4116 -0.4724 -0.5791
  112MOL   C17935921   4.999   0.444   4.758 -0.4010  0.2485 -0.0409
  112MOL   C18035922   4.877   0.504   4.720  0.4461 -0.1279  0.2218
  112MOL   C18135923   4.812   0.590   4.817 -0.8302 -0.4785 -0.1389
  112MOL  Cl18235924   4.650   0.651   4.792 -0.3380  0.5546 -0.4487
  112MOL   C18335925   4.876   0.621   4.938  0.1317 -1.0998 -0.0144
  112MOL   C18435926   5.004   0.571   4.965 -0.3520 -0.3562 -0.0353
  112MOL   C18535927   5.068   0.482   4.876 -0.4951  0.1658 -0.1210
  112MOL   C18635928   5.176   0.345   4.614 -0.0865 -0.0367 -0.4719
  112MOL   H18735929   4.977   0.314   4.592  0.2206 -1.4997 -0.3594
  112MOL   H18835930   4.819   0.471   4.634 -0.0646  0.0422  0.4983
  112MOL   H18935931   4.829   0.685   5.012 -0.1153 -2.2580  0.8424
  112MOL   H19035932   5.044   0.595   5.063  0.1480 -0.5319 -0.1962
  112MOL   H19135933   5.164   0.449   4.912  0.1610  1.5441 -0.5563
  112MOL   H19235934   5.254   0.359   4.689 -0.2352 -1.9230  0.0565
  112MOL   H19335935   5.196   0.249   4.566  0.2605 -0.6542  0.8846
  112MOL   C19435936   5.193   0.458   4.504 -0.3108 -0.1736  0.0108
  112MOL   C19535937   5.082   0.454   4.397  0.3307 -0.1865  0.7331
  112MOL   C19635938   4.971   0.537   4.396 -0.6249 -0.4946  0.1659
  112MOL   C19735939   4.872   0.526   4.307 -0.0216 -0.4921  0.1177
  112MOL  Cl19835940   4.722   0.625   4.315  0.0745  0.0663  0.2066
  112MOL   C19935941   4.884   0.424   4.206  0.0968 -0.0996 -0.3960
  112MOL   C20035942   4.999   0.352   4.192  0.7021 -0.0573 -0.4716
  112MOL   C20135943   5.094   0.354   4.297 -0.0335  0.1478  0.1620
  112MOL   C20235944   5.213   0.603   4.560 -0.4407  0.2160 -0.0422
  112MOL   H20335945   5.283   0.426   4.452 -0.1163  1.1185 -0.4780
  112MOL   H20435946   4.963   0.605   4.480  0.4340 -0.9782  0.6678
  112MOL   H20535947   4.802   0.417   4.135 -0.6507  0.2271  0.4151
  112MOL   H20635948   4.999   0.272   4.119 -0.3501  0.7862 -1.4019
  112MOL   H20735949   5.175   0.282   4.300  0.2436  0.5102  2.9182
  112MOL   H20835950   5.197   0.658   4.467 -2.0963 -1.7489 -0.9417
  112MOL   H20935951   5.133   0.639   4.624 -0.9396 -1.3342  0.2258
  112MOL   C21035952   5.360   0.637   4.608  0.2175  0.3002  0.1963
  112MOL   C21135953   5.469   0.593   4.507 -0.1345  0.0504 -0.1752
  112MOL   C21235954   5.455   0.614   4.365  0.1289  0.1619 -0.0861
  112MOL   C21335955   5.551   0.571   4.275 -0.2825 -0.0683 -0.2239
  112MOL  Cl21435956   5.547   0.610   4.109 -0.4013 -0.1323  0.0106
  112MOL   C21535957   5.663   0.500   4.329  0.2118 -0.2054  0.3037
  112MOL   C21635958   5.674   0.475   4.470  0.3680 -0.9555  0.1974
  112MOL   C21735959   5.584   0.528   4.557  0.3954  0.0481 -0.0920
  112MOL   C21835960   5.374   0.789   4.643 -0.3724  0.4789 -0.4523
  112MOL   H21935961   5.379   0.581   4.700 -0.4829 -0.4243 -0.0975
  112MOL   H22035962   5.370   0.665   4.324 -0.6578  0.5696  1.9645
  112MOL   H22135963   5.744   0.460   4.270  0.1238 -0.1251  0.1250
  112MOL   H22235964   5.759   0.422   4.508  2.1898  1.2564 -0.6719
  112MOL   H22335965   5.600   0.503   4.661  3.0423  0.7011 -0.2958
  112MOL   H22435966   5.480   0.803   4.626  0.2457 -3.1177 -0.0041
  112MOL   H22535967   5.320   0.854   4.575 -1.5153  0.6281  0.5670
  112MOL   C22635968   5.335   0.814   4.798  0.4330  0.5797  0.6394
  112MOL   C22735969   5.443   0.760   4.898  0.5054 -0.8993 -0.1514
  112MOL   C22835970   5.394   0.727   5.029 -0.8372  0.2268 -0.3814
  112MOL   C22935971   5.486   0.693   5.132  0.4747  0.1426 -0.3195
  112MOL  Cl23035972   5.436   0.673   5.294 -0.0996  0.2452  0.4255
  112MOL   C23135973   5.622   0.700   5.110  0.2393 -0.5035 -0.0288
  112MOL   C23235974   5.669   0.726   4.974  0.2003 -0.1006  0.1472
  112MOL   C23335975   5.582   0.757   4.872 -0.2129 -0.2600  0.0966
  112MOL   C23435976   5.297   0.953   4.825  0.6936  0.1643  0.4156
  112MOL   H23535977   5.248   0.751   4.813  1.6379 -1.0973  0.7445
  112MOL   H23635978   5.288   0.723   5.047 -0.7372 -2.3112 -0.1014
  112MOL   H23735979   5.693   0.694   5.191 -0.4593 -0.2636  0.6058
  112MOL   H23835980   5.777   0.718   4.975  0.0355 -2.6216  1.3405
  112MOL   H23935981   5.620   0.768   4.772 -0.8298  2.2847  0.1132
  112MOL   H24035982   5.224   0.990   4.752 -0.3137  0.0920  1.3669
  112MOL   H24135983   5.239   0.947   4.917 -2.2536  1.9247 -1.2429
  112MOL   C24235984   5.410   1.057   4.848  0.4870 -0.1503 -0.6272
  112MOL   C24335985   5.465   1.102   4.718  0.0557 -0.1798  0.2216
  112MOL   C24435986   5.600   1.082   4.683  0.4019  0.7838  1.0819
  112MOL   C24535987   5.653   1.133   4.560  0.0717  0.6040  0.6398
  112MOL  Cl24635988   5.824   1.096   4.527  0.0304  0.1549 -0.0895
  112MOL   C24735989   5.560   1.186   4.457 -0.5363  0.0246 -0.6529
  112MOL   C24835990   5.430   1.208   4.498 -0.0243 -0.2605  0.1102
  112MOL   C24935991   5.386   1.167   4.623 -0.0320  0.1419  0.6185
  112MOL   C25035992   5.372   1.182   4.936 -0.5360  0.2605 -0.7493
  112MOL   H25135993   5.491   0.999   4.891  0.9163  1.1112  0.3018
  112MOL   H25235994   5.668   1.041   4.756  3.1031  1.0666 -1.1981
  112MOL   H25335995   5.603   1.222   4.365 -1.6031  0.6458 -0.9043
  112MOL   H25435996   5.360   1.255   4.432 -1.4963 -0.6261  1.3841
  112MOL   H25535997   5.283   1.188   4.645  0.3271  1.8208  0.7651
  112MOL   H25635998   5.293   1.244   4.893 -2.6499 -1.5321  0.4217
  112MOL   H25735999   5.329   1.140   5.027  0.1876 -0.5409 -0.7797
  112MOL   C25836000   5.503   1.267   4.975 -1.0310 -0.1044  0.1054
  112MOL   C25936001   5.468   1.400   5.037 -0.2973  0.5172 -0.1255
  112MOL   C26036002   5.427   1.504   4.954 -0.1543  0.3169 -0.2194
  112MOL   C26136003   5.410   1.635   5.012 -0.0400  0.0235  0.3463
  112MOL  Cl26236004   5.367   1.764   4.901  0.1183  0.2267  0.0112
  112MOL   C26336005   5.426   1.658   5.149  0.3522  0.1569  0.1738
  112MOL   C26436006   5.446   1.552   5.232 -0.2080 -0.2448 -0.9291
  112MOL   C26536007   5.471   1.426   5.179  0.0133  0.0520 -0.4212
  112MOL   C26636008   5.595   1.178   5.068  0.4322 -0.1763  0.3315
  112MOL   H26736009   5.557   1.301   4.887  2.2586 -0.3251  1.9731
  112MOL   H26836010   5.403   1.480   4.851 -2.0034 -1.4501  0.5986
  112MOL   H26936011   5.400   1.749   5.201  3.0210  0.5079  0.9317
  112MOL   H27036012   5.455   1.561   5.339  0.0396 -3.2272 -0.6702
  112MOL   H27136013   5.487   1.346   5.248 -1.0449  0.2711  0.0955
  112MOL   H27236014   5.540   1.145   5.156  0.9320 -0.9117  0.3647
  112MOL   H27336015   5.621   1.090   5.010  0.5680  1.2987 -1.9480
  112MOL   C27436016   5.724   1.245   5.117 -0.7658  0.4258 -0.5386
  112MOL   C27536017   5.797   1.144   5.207 -0.4739  0.5730 -0.3166
  112MOL   C27636018   5.821   1.015   5.165  0.4239  0.3703 -1.0001
  112MOL   C27736019   5.903   0.929   5.238  0.7130  0.6548  0.1525
  112MOL  Cl27836020   5.951   0.778   5.171  0.3326  0.1748  0.3669
  112MOL   C27936021   5.957   0.966   5.358 -0.0611 -0.4311  0.4829
  112MOL   C28036022   5.923   1.095   5.409 -0.2254  0.3134  0.0528
  112MOL   C28136023   5.842   1.182   5.330  0.2315 -0.4939  0.4238
  112MOL   C28236024   5.819   1.277   5.003  0.1320 -0.7933 -0.3950
  112MOL   H28336025   5.711   1.338   5.172  1.4325  0.2369  0.3745
  112MOL   H28436026   5.786   0.978   5.070 -0.0371  0.6906 -0.9545
  112MOL   H28536027   6.028   0.901   5.407 -0.9921 -1.6998  0.1671
  112MOL   H28636028   5.957   1.124   5.507 -1.6245  1.0773  0.3317
  112MOL   H28736029   5.814   1.279   5.370 -1.6966 -0.8427  0.0022
  112MOL   H28836030   5.925   1.262   5.024  0.4741  3.2710  1.2366
  112MOL   H28936031   5.800   1.212   4.918 -1.3272  0.1241 -0.7884
  112MOL   C29036032   5.822   1.430   4.949  0.1421 -0.4378  0.5479
  112MOL   C29136033   5.842   1.541   5.057 -0.3836  0.8872 -0.5056
  112MOL   C29236034   5.762   1.657   5.060  0.0105 -0.1067  0.3770
  112MOL   C29336035   5.791   1.766   5.149 -0.1758 -0.2022  0.7651
  112MOL  Cl29436036   5.694   1.908   5.124  0.2655 -0.0324 -0.0811
  112MOL   C29536037   5.893   1.763   5.241 -0.2807 -0.2593  0.6760
  112MOL   C29636038   5.972   1.646   5.241  0.1129  0.3472  0.2299
  112MOL   C29736039   5.950   1.536   5.152  0.2844 -0.5648  0.6110
  112MOL   C29836040   5.917   1.450   4.831 -0.1785 -0.1235 -0.0652
  112MOL   H29936041   5.721   1.439   4.907  1.1102  0.1243 -1.7151
  112MOL   H30036042   5.687   1.667   4.984 -0.3975  0.9281  0.9130
  112MOL   H30136043   5.903   1.843   5.312 -1.7178  2.5409 -2.1650
  112MOL   H30236044   6.044   1.645   5.321 -1.0763 -1.5066  1.3176
  112MOL   H30336045   6.012   1.448   5.151 -0.0078 -0.7651  0.2772
  112MOL   H30436046   5.956   1.552   4.835  0.1348 -0.3248  3.2497
  112MOL   H30536047   6.009   1.392   4.828  1.1467  1.7966  1.9891
  112MOL   C30636048   5.847   1.436   4.695 -0.0295 -0.3819 -0.1570
  112MOL   C30736049   5.751   1.548   4.668 -0.0682 -0.3243 -0.4382
  112MOL   C30836050   5.794   1.685   4.664 -0.2204 -0.5258  0.5516
  112MOL   C30936051   5.704   1.794   4.653  0.0769  0.0051 -0.4867
  112MOL  Cl31036052   5.757   1.955   4.648 -0.4438 -0.4683 -0.1700
  112MOL   C31136053   5.568   1.765   4.640 -0.1581 -0.3668  0.1756
  112MOL   C31236054   5.523   1.631   4.641 -0.2354 -0.4283 -0.4843
  112MOL   C31336055   5.615   1.524   4.653 -0.3933  0.6894  1.3201
  112MOL   C31436056   5.934   1.415   4.578 -0.7215 -0.8126 -0.2684
  112MOL   H31536057   5.793   1.342   4.705 -0.8092  0.2257  1.5324
  112MOL   H31636058   5.898   1.704   4.685 -0.8362  0.6688  2.5811
  112MOL   H31736059   5.498   1.843   4.612 -1.5411 -1.3026  0.9539
  112MOL   H31836060   5.419   1.630   4.614  0.3785 -0.6993 -2.9655
  112MOL   H31936061   5.587   1.420   4.647  1.5889  0.1877  0.2530
  112MOL   H32036062   5.999   1.332   4.608  1.4082  1.0986  0.5467
  112MOL   H32136063   5.882   1.407   4.482 -0.3863  1.8837 -0.7196
  112MOL   H32236064   6.009   1.494   4.567 -1.7499  0.7943  3.7760
  113MOL     C136065   8.431   5.335   3.020 -0.4512  1.7036 -0.2235
  113MOL     C236066   8.378   5.269   3.149 -0.7327 -0.3737 -0.2361
  113MOL     C336067   0.023   5.168   3.207  0.1711 -0.1720 -0.3125
  113MOL     C436068   8.391   5.095   3.307 -0.3737  0.2764  1.0971
  113MOL    Cl536069   0.039   4.972   3.385 -0.1750 -0.0483  0.1451
  113MOL     C636070   8.267   5.128   3.356  0.2168 -0.5379  0.2146
  113MOL     C736071   8.188   5.238   3.304 -0.2040  0.2894  0.2156
  113MOL     C836072   8.249   5.311   3.202  0.2768 -0.6409  0.0169
  113MOL     C936073   8.317   5.332   2.913 -1.0017 -0.0959 -0.1874
  113MOL    H1036074   0.078   5.273   2.985 -1.0423  0.9725 -0.3196
  113MOL    H1136075   0.124   5.142   3.181  0.2072 -1.8798  1.3925
  113MOL    H1236076   8.221   5.071   3.435 -2.3237  0.8373 -0.1950
  113MOL    H1336077   8.091   5.276   3.335  0.5717  3.7737 -1.3966
  113MOL    H1436078   8.196   5.394   3.159 -0.8531 -2.8962 -3.2079
  113MOL    H1536079   8.295   5.226   2.911  0.4278 -0.3802 -1.9937
  113MOL    H1636080   8.227   5.386   2.944 -1.8841 -0.7521 -1.5831
  113MOL    H1736081   0.030   5.438   3.029 -1.0512  1.6773  2.6699
  113MOL    C1836082   8.360   5.360   2.765  0.9670  0.2659 -0.8629
  113MOL    C1936083   0.069   5.301   2.738  0.1262  0.0903 -0.4137
  113MOL    C2036084   0.186   5.373   2.749  0.1675 -0.8532  0.1464
  113MOL    C2136085   0.305   5.322   2.705 -0.2727  0.3741  0.8458
  113MOL   Cl2236086   0.452   5.417   2.711 -0.0837 -0.2760 -0.1710
  113MOL    C2336087   0.319   5.187   2.663  0.9126 -0.6348  0.2430
  113MOL    C2436088   0.204   5.112   2.666  0.1881  0.6024 -0.4622
  113MOL    C2536089   0.079   5.166   2.697  0.0609  0.2720 -0.4762
  113MOL    C2636090   8.246   5.306   2.674 -0.6038 -0.0777 -0.2859
  113MOL    H2736091   8.359   5.469   2.753  2.3681  0.3009 -0.7814
  113MOL    H2836092   0.188   5.477   2.777 -3.0219 -1.2178  1.9642
  113MOL    H2936093   0.418   5.149   2.646  1.4696 -0.2286  2.4086
  113MOL    H3036094   0.200   5.006   2.648 -1.9130  0.6278 -0.1755
  113MOL    H3136095   8.423   5.107   2.701 -0.5956  1.2611 -0.6112
  113MOL    H3236096   8.239   5.198   2.689 -0.6492 -0.0438 -0.0549
  113MOL    H3336097   8.149   5.346   2.705 -1.0616 -0.5028 -1.1407
  113MOL    C3436098   8.249   5.340   2.524 -0.2059 -0.3020  1.0410
  113MOL    C3536099   8.175   5.236   2.441 -0.3802  0.1299 -0.2594
  113MOL    C3636100   8.219   5.213   2.309 -0.4203 -0.0045  0.0281
  113MOL    C3736101   8.134   5.134   2.228 -0.7948  0.3624 -0.4793
  113MOL   Cl3836102   8.173   5.105   2.063 -0.2981  0.4059  0.1019
  113MOL    C3936103   8.017   5.070   2.284 -0.2752  0.4075 -0.0897
  113MOL    C4036104   7.971   5.088   2.418 -1.0696  0.3809 -0.0570
  113MOL    C4136105   8.057   5.172   2.498  0.5059 -0.8062  0.3362
  113MOL    C4236106   8.196   5.483   2.497  0.2396  0.4232  0.1984
  113MOL    H4336107   8.352   5.342   2.489 -0.1595  2.8914  1.2516
  113MOL    H4436108   8.312   5.257   2.276 -0.6518  0.1481 -0.4152
  113MOL    H4536109   7.963   4.995   2.228  0.1197 -0.8923  1.2373
  113MOL    H4636110   7.898   5.022   2.462 -1.2161  1.8923  2.0069
  113MOL    H4736111   8.018   5.191   2.597  2.4259  1.2255  0.7296
  113MOL    H4836112   8.250   5.552   2.561  2.1507 -2.1415  1.4095
  113MOL    H4936113   8.244   5.507   2.402 -1.7126 -1.4012 -1.3201
  113MOL    C5036114   8.043   5.511   2.495 -0.2477  0.0817 -0.2641
  113MOL    C5136115   8.010   5.627   2.592 -0.3118  0.4158  0.1339
  113MOL    C5236116   7.961   5.593   2.721 -0.3435  0.3500  0.2427
  113MOL    C5336117   7.949   5.691   2.818 -0.0231  0.3446  0.0273
  113MOL   Cl5436118   7.915   5.635   2.980 -0.1927 -0.0811 -0.1733
  113MOL    C5536119   7.983   5.829   2.787 -0.1681 -0.0118  0.0431
  113MOL    C5636120   8.022   5.861   2.653 -0.1043 -0.0951  0.0321
  113MOL    C5736121   8.032   5.758   2.554  0.1735 -0.5009 -0.3115
  113MOL    C5836122   7.999   5.527   2.344  0.2169  0.0592 -0.2106
  113MOL    H5936123   7.988   5.425   2.532  0.7461 -0.3865  0.1516
  113MOL    H6036124   7.961   5.490   2.752  1.2381  0.1317 -0.4559
  113MOL    H6136125   7.985   5.908   2.860  1.4424 -0.7548  0.8167
  113MOL    H6236126   8.048   5.963   2.630  1.6349 -0.3401  0.8984
  113MOL    H6336127   8.073   5.785   2.458  0.0184 -2.1537 -0.8650
  113MOL    H6436128   8.025   5.626   2.307  0.6912  0.8662  2.2233
  113MOL    H6536129   8.064   5.460   2.286  0.3525  1.3277 -1.5567
  113MOL    C6636130   7.845   5.495   2.302  0.7194 -0.6967 -0.4714
  113MOL    C6736131   7.740   5.564   2.390 -0.3085  0.4589  0.5321
  113MOL    C6836132   7.723   5.700   2.374 -0.5986  0.5256 -0.1318
  113MOL    C6936133   7.631   5.768   2.465  0.1684  0.6962  0.1268
  113MOL   Cl7036134   7.580   5.927   2.439 -0.0244 -0.3829  0.2401
  113MOL    C7136135   7.566   5.696   2.570 -1.0161  0.0780 -0.9091
  113MOL    C7236136   7.582   5.557   2.581  0.2599 -0.0562 -0.7436
  113MOL    C7336137   7.664   5.493   2.489  0.1854 -0.0273  0.0507
  113MOL    C7436138   7.811   5.523   2.153 -0.0351 -0.3705  0.0187
  113MOL    H7536139   7.821   5.391   2.326  1.5802 -1.0095 -0.9806
  113MOL    H7636140   7.792   5.760   2.316  1.8613  0.3343  2.5157
  113MOL    H7736141   7.494   5.741   2.636 -0.2030 -1.8775  1.3907
  113MOL    H7836142   7.506   5.510   2.642  0.8585  0.9685  0.8154
  113MOL    H7936143   7.680   5.387   2.501  2.5887  0.5562  2.4422
  113MOL    H8036144   7.704   5.532   2.139 -0.3752 -1.6845  1.6541
  113MOL    H8136145   7.860   5.617   2.127  0.8397  0.1714  3.4541
  113MOL    C8236146   7.841   5.413   2.052 -0.0936  0.0242 -0.2156
  113MOL    C8336147   7.758   5.292   2.053  0.1556  0.0225  0.5667
  113MOL    C8436148   7.815   5.163   2.060 -0.5537 -0.0818  0.3975
  113MOL    C8536149   7.729   5.050   2.062 -0.2076 -0.4094 -0.3706
  113MOL   Cl8636150   7.796   4.891   2.057 -0.0443 -0.2288 -0.1771
  113MOL    C8736151   7.590   5.058   2.038  0.4617 -0.0443 -0.0406
  113MOL    C8836152   7.535   5.191   2.028  0.1518 -0.4460  0.1324
  113MOL    C8936153   7.615   5.304   2.041 -0.2328 -0.1024  0.6531
  113MOL    C9036154   7.838   5.469   1.900 -0.3049  0.1537 -0.4402
  113MOL    H9136155   7.942   5.380   2.076 -0.6132  0.0777  2.0887
  113MOL    H9236156   7.923   5.157   2.060 -0.4999  0.3732 -1.7627
  113MOL    H9336157   7.534   4.967   2.022 -0.3203  0.7327 -1.8497
  113MOL    H9436158   7.429   5.208   2.018 -0.2180 -1.0018  2.7346
  113MOL    H9536159   7.571   5.402   2.038  0.4499  0.1732 -1.7441
  113MOL    H9636160   7.818   5.381   1.838 -0.3293 -0.2176  0.0902
  113MOL    H9736161   7.759   5.539   1.872  0.5988  0.8980 -1.1810
  113MOL    C9836162   7.974   5.536   1.863  0.5256 -0.5067 -0.3375
  113MOL    C9936163   8.085   5.449   1.813 -0.7708  0.2054 -0.0516
  113MOL   C10036164   8.065   5.329   1.736 -0.6363 -0.5576  0.6028
  113MOL   C10136165   8.169   5.247   1.694 -0.3066  0.6722  0.3328
  113MOL  Cl10236166   8.132   5.096   1.620 -0.1789 -0.2468 -0.2792
  113MOL   C10336167   8.301   5.292   1.721 -0.4973  0.0755 -0.3272
  113MOL   C10436168   8.326   5.412   1.787 -0.2048  0.8836 -0.2816
  113MOL   C10536169   8.219   5.488   1.841  0.2989 -0.0970  0.2681
  113MOL   C10636170   7.954   5.663   1.772  0.6977 -1.0491 -0.3128
  113MOL   H10736171   8.018   5.581   1.952  1.1618  3.9543 -2.7485
  113MOL   H10836172   7.964   5.311   1.703 -0.5143 -0.0364 -0.0669
  113MOL   H10936173   8.381   5.226   1.694 -1.3301 -1.4235  0.8269
  113MOL   H11036174   8.430   5.432   1.809  0.3108 -0.2508 -1.5860
  113MOL   H11136175   8.244   5.569   1.908 -1.4253  0.2104  0.5409
  113MOL   H11236176   8.053   5.702   1.750  0.0292 -0.1158 -1.7602
  113MOL   H11336177   7.911   5.631   1.677 -1.9977  0.5721  0.3097
  113MOL   C11436178   7.888   5.787   1.840  0.2890 -0.5251 -0.0363
  113MOL   C11536179   7.955   5.848   1.964 -0.5188 -0.1054 -0.3877
  113MOL   C11636180   7.877   5.926   2.061 -0.0951 -0.1527 -0.7028
  113MOL   C11736181   7.936   5.991   2.171  0.1202  0.5431  0.2945
  113MOL  Cl11836182   7.840   6.098   2.275  0.0041 -0.0333  0.1508
  113MOL   C11936183   8.074   5.994   2.182 -0.3642 -0.0862  0.3322
  113MOL   C12036184   8.152   5.924   2.090  0.1819  0.2721 -0.4243
  113MOL   C12136185   8.099   5.856   1.976 -0.3959  0.3443  0.0101
  113MOL   C12236186   7.864   5.909   1.749 -0.7742 -0.3389  0.1199
  113MOL   H12336187   7.792   5.754   1.879 -1.2952  2.1332 -1.5150
  113MOL   H12436188   7.771   5.936   2.045 -0.6007 -0.0452  2.3256
  113MOL   H12536189   8.121   6.039   2.268 -0.4141  1.3126 -0.3577
  113MOL   H12636190   8.260   5.928   2.096  0.1899  0.5737 -0.7775
  113MOL   H12736191   8.165   5.807   1.906  0.6505 -0.3373  1.4576
  113MOL   H12836192   7.849   6.000   1.808  0.2167  1.3492 -2.1408
  113MOL   H12936193   7.959   5.934   1.701  0.2260 -0.4506  1.9976
  113MOL   C13036194   7.767   5.890   1.634 -0.0965  0.2401 -0.0194
  113MOL   C13136195   7.633   5.858   1.696  0.6682  0.4352  0.0466
  113MOL   C13236196   7.559   5.759   1.632 -0.0216  0.4035  0.3809
  113MOL   C13336197   7.441   5.712   1.686  0.5067 -0.7220 -0.5015
  113MOL  Cl13436198   7.367   5.584   1.615  0.1781  0.7145  0.3211
  113MOL   C13536199   7.376   5.774   1.796 -0.1683  0.2847  0.0839
  113MOL   C13636200   7.440   5.882   1.856 -0.5092 -0.3448 -0.5324
  113MOL   C13736201   7.566   5.927   1.805  0.4234  0.2461 -0.3420
  113MOL   C13836202   7.755   6.015   1.543 -0.7403  0.0445  0.1426
  113MOL   H13936203   7.803   5.805   1.575 -0.8111 -1.6125  2.1630
  113MOL   H14036204   7.604   5.706   1.549  0.5963 -0.1753  1.0777
  113MOL   H14136205   7.283   5.735   1.834  0.3902 -1.8661 -0.7205
  113MOL   H14236206   7.399   5.936   1.941  0.3863  0.0481 -0.3411
  113MOL   H14336207   7.606   6.014   1.856  0.9219 -0.0530 -0.2258
  113MOL   H14436208   7.666   6.066   1.580 -0.5720  1.0262 -0.8003
  113MOL   H14536209   7.841   6.077   1.567  0.0070 -1.5799  1.7245
  113MOL   C14636210   7.732   6.003   1.393  0.5403 -0.0611 -0.1742
  113MOL   C14736211   7.619   5.911   1.350 -0.0019 -0.4967 -0.3712
  113MOL   C14836212   7.487   5.956   1.370  0.5806  0.1150 -0.4216
  113MOL   C14936213   7.377   5.879   1.324 -0.2242 -0.0919 -0.4366
  113MOL  Cl15036214   7.213   5.932   1.369  0.6951  0.0899 -0.0936
  113MOL   C15136215   7.398   5.757   1.263 -0.2990 -0.1601 -0.7994
  113MOL   C15236216   7.532   5.712   1.243  0.0399  0.0434 -0.0729
  113MOL   C15336217   7.640   5.787   1.290 -0.1318 -0.1242  0.3782
  113MOL   C15436218   7.743   6.136   1.314  0.3842 -0.3632 -0.0355
  113MOL   H15536219   7.815   5.941   1.359  1.5553  0.7436  0.7983
  113MOL   H15636220   7.472   6.042   1.433  0.2380 -1.0648  1.1589
  113MOL   H15736221   7.310   5.709   1.224 -1.1113  0.7542 -0.1062
  113MOL   H15836222   7.554   5.620   1.192  1.2049  0.3378 -0.1176
  113MOL   H15936223   7.735   5.749   1.255  0.2639  1.1108  0.0683
  113MOL   H16036224   7.656   6.135   1.248 -0.4800  1.4184  1.0512
  113MOL   H16136225   7.728   6.218   1.384  1.2750  1.1113 -1.5237
  113MOL   C16236226   7.875   6.167   1.237 -0.5917 -0.9505  0.1060
  113MOL   C16336227   7.850   6.261   1.119 -0.1735 -0.7779  0.5136
  113MOL   C16436228   7.790   6.390   1.142  0.3412 -0.4933  0.6203
  113MOL   C16536229   7.758   6.473   1.038 -0.7564 -1.1228  0.4798
  113MOL  Cl16636230   7.678   6.620   1.069 -0.0520  0.0890  0.0002
  113MOL   C16736231   7.796   6.433   0.907  0.3897  0.3726  0.5453
  113MOL   C16836232   7.863   6.310   0.880  0.3121 -0.1690  0.3395
  113MOL   C16936233   7.885   6.220   0.984 -0.0774 -0.1735  0.3339
  113MOL   C17036234   7.976   6.235   1.334 -0.6462  0.0207 -0.3828
  113MOL   H17136235   7.900   6.074   1.185 -1.7762 -0.7585 -0.8324
  113MOL   H17236236   7.754   6.422   1.238 -0.3276  0.9435 -0.0862
  113MOL   H17336237   7.785   6.502   0.825 -1.6876 -0.2416  0.2615
  113MOL   H17436238   7.902   6.284   0.783 -1.8527  1.9484 -1.1740
  113MOL   H17536239   7.919   6.121   0.958 -0.1541  0.7760 -3.6952
  113MOL   H17636240   7.979   6.342   1.316 -0.7278  0.0968  0.0368
  113MOL   H17736241   7.936   6.251   1.434  0.3357 -0.4032  0.0805
  113MOL   C17836242   8.113   6.171   1.341 -0.1661 -0.7785  0.2149
  113MOL   C17936243   8.172   6.185   1.199  0.1987 -0.2812 -0.0094
  113MOL   C18036244   8.207   6.312   1.147 -0.1315 -0.3213  0.3035
  113MOL   C18136245   8.250   6.318   1.015  0.6806  0.5687  0.0615
  113MOL  Cl18236246   8.306   6.470   0.959 -0.0405 -0.0525  0.0925
  113MOL   C18336247   8.241   6.209   0.929 -0.5227 -0.1809 -1.3597
  113MOL   C18436248   8.214   6.079   0.986  0.0477 -0.2534  0.0755
  113MOL   C18536249   8.187   6.069   1.123  0.0532  0.5041 -0.3631
  113MOL   C18636250   8.194   6.234   1.455 -0.4528 -0.7029  0.1036
  113MOL   H18736251   8.093   6.065   1.357 -0.1619 -0.8194 -0.0502
  113MOL   H18836252   8.215   6.399   1.210  1.1129  0.5163 -0.9622
  113MOL   H18936253   8.263   6.206   0.823  0.3949 -3.2195 -1.1436
  113MOL   H19036254   8.209   5.988   0.929 -0.5408 -0.7302  0.8749
  113MOL   H19136255   8.173   5.971   1.166 -0.5080  0.1077 -1.4236
  113MOL   H19236256   8.182   6.342   1.449 -0.8457 -0.6486  1.6586
  113MOL   H19336257   8.140   6.200   1.543 -0.9759  3.2563  1.3905
  113MOL   C19436258   8.343   6.184   1.475  0.9008 -0.1818  0.0937
  113MOL   C19536259   0.005   6.265   1.385  0.0143  0.0273 -0.5553
  113MOL   C19636260   0.097   6.201   1.300  0.0262 -0.9035  0.3172
  113MOL   C19736261   0.181   6.272   1.219  0.2644 -0.2484 -0.3443
  113MOL  Cl19836262   0.290   6.182   1.128 -0.0941 -0.3992  0.4388
  113MOL   C19936263   0.179   6.412   1.218  0.3878  0.5125  0.4524
  113MOL   C20036264   0.106   6.485   1.320 -0.7326 -0.2285  0.5547
  113MOL   C20136265   0.017   6.407   1.402  0.4158  0.0792 -0.1338
  113MOL   C20236266   8.388   6.195   1.620 -0.2456 -0.4228 -0.1894
  113MOL   H20336267   8.366   6.080   1.452 -0.2970 -0.4531  0.0910
  113MOL   H20436268   0.100   6.093   1.297 -0.3409 -0.8822 -0.9824
  113MOL   H20536269   0.248   6.467   1.156  0.8123 -1.0321 -0.4776
  113MOL   H20636270   0.121   6.592   1.318  2.5021 -0.6247  0.1548
  113MOL   H20736271   8.391   6.451   1.479 -0.3106  0.4811 -0.9275
  113MOL   H20836272   0.059   6.173   1.632 -0.0252 -0.5029 -2.2035
  113MOL   H20936273   8.360   6.296   1.649 -0.5961 -0.4280 -0.5137
  113MOL   C21036274   8.323   6.095   1.709 -0.2699  0.6768  0.3236
  113MOL   C21136275   8.383   5.958   1.683  0.3476 -0.3738  0.4661
  113MOL   C21236276   8.298   5.868   1.610  0.1678  0.0893 -0.3822
  113MOL   C21336277   8.336   5.739   1.592  0.1135  0.3440 -0.0945
  113MOL  Cl21436278   8.225   5.633   1.518  0.2851 -0.2537  0.2349
  113MOL   C21536279   0.029   5.695   1.634  0.2065  0.0988  0.1024
  113MOL   C21636280   0.115   5.784   1.699 -0.2301  0.6452  0.3607
  113MOL   C21736281   0.072   5.915   1.721 -0.1001  0.0723 -0.3582
  113MOL   C21836282   8.324   6.142   1.851 -0.2017  0.1252  0.2108
  113MOL   H21936283   8.215   6.093   1.697 -0.5522  0.4334  2.7392
  113MOL   H22036284   8.200   5.897   1.575 -0.7150 -0.2506  1.7261
  113MOL   H22136285   0.064   5.593   1.623  2.1788  0.6716  0.8449
  113MOL   H22236286   0.210   5.744   1.729  0.0459  1.2140  0.2426
  113MOL   H22336287   0.135   5.977   1.783  2.3402 -1.5657 -1.0782
  113MOL   H22436288   8.275   6.063   1.908 -2.2781  1.2395  0.0328
  113MOL   H22536289   8.428   6.143   1.881 -0.5017 -1.5060  1.3552
  113MOL   C22636290   8.254   6.285   1.884  0.7038  0.6310 -0.2830
  113MOL   C22736291   8.125   6.317   1.812  0.1048  0.0189  0.0163
  113MOL   C22836292   8.116   6.424   1.715  0.2144 -0.1917 -0.8290
  113MOL   C22936293   7.993   6.454   1.647  0.2271 -0.7682 -0.2248
  113MOL  Cl23036294   7.983   6.576   1.520 -0.1847 -0.0666  0.3685
  113MOL   C23136295   7.879   6.377   1.684  0.6094 -0.0809  0.1606
  113MOL   C23236296   7.883   6.287   1.793  0.0396  0.2802 -0.4367
  113MOL   C23336297   8.004   6.253   1.853 -0.2859  0.3757  0.6879
  113MOL   C23436298   8.230   6.307   2.035  0.3421  0.5413 -0.2152
  113MOL   H23536299   8.328   6.361   1.859 -0.0949  2.0450  1.5406
  113MOL   H23636300   8.205   6.478   1.686 -0.2636  1.2670  0.3260
  113MOL   H23736301   7.784   6.389   1.633  0.1041  0.3628  1.1958
  113MOL   H23836302   7.795   6.234   1.825 -0.6898  0.3934 -2.1632
  113MOL   H23936303   7.997   6.167   1.918 -1.9350  0.0290  0.0651
  113MOL   H24036304   8.171   6.226   2.077  1.4885 -0.7789 -1.1063
  113MOL   H24136305   8.328   6.314   2.082  0.1563  1.3003  0.0654
  113MOL   C24236306   8.171   6.441   2.077  0.4241 -0.0429  0.3840
  113MOL   C24336307   8.110   6.434   2.221 -0.4501  0.2627 -0.5235
  113MOL   C24436308   8.177   6.360   2.327  0.8365  0.2001 -0.0120
  113MOL   C24536309   8.109   6.337   2.450 -0.1657 -0.2553 -0.6076
  113MOL  Cl24636310   8.192   6.241   2.568  0.2705 -0.0203  0.3892
  113MOL   C24736311   7.982   6.391   2.477  0.6672 -0.1665  0.2252
  113MOL   C24836312   7.919   6.479   2.381  0.5879  0.5862 -0.2280
  113MOL   C24936313   7.988   6.497   2.254 -0.7436 -0.0688 -0.0143
  113MOL   C25036314   8.270   6.556   2.062  0.1958 -0.5482  0.0314
  113MOL   H25136315   8.085   6.456   2.011  0.7052 -0.1433 -0.0113
  113MOL   H25236316   8.273   6.313   2.311  0.2666 -1.3344  0.9396
  113MOL   H25336317   7.944   6.370   2.576 -0.4947 -0.2415 -0.2230
  113MOL   H25436318   7.824   6.529   2.398  0.4504  0.6265 -1.0795
  113MOL   H25536319   7.939   6.557   2.179  0.0748  1.0857  0.3623
  113MOL   H25636320   8.278   6.599   2.162  0.6644 -2.1384  0.6879
  113MOL   H25736321   8.369   6.518   2.036  0.6541  1.5311 -1.4343
  113MOL   C25836322   8.222   6.663   1.960 -0.2834  0.1199  0.1952
  113MOL   C25936323   8.086   6.734   1.996  1.1708  0.1478  0.4733
  113MOL   C26036324   7.982   6.760   1.898 -0.4195  0.1254  0.0577
  113MOL   C26136325   7.874   6.841   1.923 -0.3373 -0.5322 -0.1962
  113MOL  Cl26236326   7.769   6.880   1.795 -0.3581  0.3802  0.0948
  113MOL   C26336327   7.860   6.895   2.051  0.4095 -0.5242 -0.9395
  113MOL   C26436328   7.961   6.869   2.153  0.3083 -0.5797 -0.4222
  113MOL   C26536329   8.074   6.797   2.119  0.2389 -0.4531 -0.0532
  113MOL   C26636330   8.333   6.761   1.941  0.1896  0.0364 -1.0226
  113MOL   H26736331   8.213   6.615   1.863 -0.4036 -0.5325  0.5324
  113MOL   H26836332   8.001   6.727   1.797  2.6195 -0.4184  0.7469
  113MOL   H26936333   7.772   6.955   2.069  1.0824 -0.2150  1.5241
  113MOL   H27036334   7.969   6.906   2.254  0.2901 -0.3748 -0.4957
  113MOL   H27136335   8.150   6.784   2.195  1.9928 -0.2916 -1.7509
  113MOL   H27236336   8.363   6.802   2.038  0.3638  0.3765 -1.2181
  113MOL   H27336337   8.418   6.702   1.907  1.3370 -0.5036  2.5791
  113MOL   C27436338   8.306   6.879   1.848  0.5333 -0.2985  0.0088
  113MOL   C27536339   8.429   6.971   1.865 -0.0810  0.1869  0.2387
  113MOL   C27636340   0.114   6.935   1.794 -0.2307  0.2346 -0.4201
  113MOL   C27736341   0.228   7.014   1.804 -0.2023 -0.4152  0.1945
  113MOL  Cl27836342   0.368   6.973   1.713 -0.0632  0.1148 -0.3649
  113MOL   C27936343   0.233   7.128   1.890  0.2139 -0.8135 -0.4510
  113MOL   C28036344   0.119   7.163   1.958 -0.1608  0.0600 -0.3459
  113MOL   C28136345   8.435   7.081   1.955 -0.0614  0.0914 -0.3556
  113MOL   C28236346   8.273   6.839   1.703  0.4475  0.9835  0.0615
  113MOL   H28336347   8.220   6.935   1.883 -1.1137 -2.7405 -0.0119
  113MOL   H28436348   0.122   6.849   1.730 -0.4714 -0.1102  0.0091
  113MOL   H28536349   0.328   7.179   1.892 -1.8193  3.1584  1.4992
  113MOL   H28636350   0.114   7.244   2.029  0.5472 -0.6416  0.5186
  113MOL   H28736351   8.349   7.113   2.012  1.3468  1.3477  1.1233
  113MOL   H28836352   8.363   6.794   1.660  2.1829  1.6137  2.9227
  113MOL   H28936353   8.197   6.761   1.696  0.6440  0.8287 -0.4115
  113MOL   C29036354   8.223   6.957   1.613 -0.2033 -0.6155  0.3412
  113MOL   C29136355   8.259   6.925   1.465  0.0259 -0.0811  0.2860
  113MOL   C29236356   8.177   6.847   1.377  0.7681  0.3843  0.4147
  113MOL   C29336357   8.213   6.826   1.244  0.7203 -0.1839 -0.0716
  113MOL  Cl29436358   8.109   6.745   1.140 -0.0338 -0.0811  0.0653
  113MOL   C29536359   8.329   6.880   1.190  0.3097  0.3706  0.0442
  113MOL   C29636360   8.421   6.943   1.280 -0.3781 -0.6501  0.6275
  113MOL   C29736361   8.386   6.970   1.411  0.4483 -0.1743 -0.6668
  113MOL   C29836362   8.070   6.981   1.635 -0.3719  0.4014 -0.2944
  113MOL   H29936363   8.280   7.050   1.625  1.0191 -1.2890 -0.1021
  113MOL   H30036364   8.083   6.805   1.411  1.8993 -1.2915  1.5644
  113MOL   H30136365   8.351   6.862   1.086 -0.7444 -0.1427 -0.0976
  113MOL   H30236366   0.072   6.998   1.245 -1.8316  0.6674 -1.0218
  113MOL   H30336367   0.028   7.021   1.466  2.3536 -0.5692 -2.9369
  113MOL   H30436368   8.013   6.897   1.596 -0.3992 -0.3313  1.2660
  113MOL   H30536369   8.068   6.957   1.741  0.2895  0.0649 -0.3544
  113MOL   C30636370   8.012   7.121   1.596 -0.1774  0.1343  0.5843
  113MOL   C30736371   8.094   7.232   1.668  0.8518  0.7326  0.4713
  113MOL   C30836372   8.157   7.330   1.597 -0.0512 -0.1524 -0.0933
  113MOL   C30936373   8.217   7.438   1.666 -0.0596 -0.1151  0.5217
  113MOL  Cl31036374   8.282   7.569   1.576  0.3126  0.2700 -0.3322
  113MOL   C31136375   8.220   7.442   1.803  0.1428 -0.2729  0.4254
  113MOL   C31236376   8.169   7.340   1.879  0.4075 -0.2863 -0.0650
  113MOL   C31336377   8.101   7.232   1.808 -0.3352 -0.1514  0.4892
  113MOL   C31436378   7.991   7.143   1.444 -0.2044 -0.3616  0.1177
  113MOL   H31536379   7.911   7.120   1.637 -1.4659  0.0228 -2.4483
  113MOL   H31636380   8.143   7.344   1.491  1.4655 -0.4853 -0.3540
  113MOL   H31736381   8.270   7.517   1.861  0.8589  0.2295 -0.8117
  113MOL   H31836382   8.174   7.330   1.986  1.0310  1.4977  0.0851
  113MOL   H31936383   8.057   7.158   1.873  0.5752 -0.3878  0.8484
  113MOL   H32036384   8.085   7.116   1.395 -0.3634 -1.4212  0.3792
  113MOL   H32136385   7.905   7.085   1.411 -0.2683  0.1559 -0.6559
  113MOL   H32236386   7.958   7.245   1.424  0.3257 -0.6787 -2.5774
  114MOL     C136387   5.543   6.446   3.944 -0.6193  0.2286 -0.8978
  114MOL     C236388   5.404   6.457   3.873  0.5795  0.5824  0.2779
  114MOL     C336389   5.300   6.528   3.940  0.6710 -0.0366 -0.4609
  114MOL     C436390   5.167   6.533   3.886 -0.6145 -0.2715 -0.4741
  114MOL    Cl536391   5.030   6.607   3.956  0.2461 -0.0274  0.1147
  114MOL     C636392   5.139   6.465   3.765  0.7777 -1.4775  0.4686
  114MOL     C736393   5.241   6.391   3.696 -0.0311  0.0172 -0.0348
  114MOL     C836394   5.372   6.394   3.747 -0.0666  0.3955  1.2807
  114MOL     C936395   5.562   6.330   4.034  0.2960 -0.5514  0.7189
  114MOL    H1036396   5.551   6.535   4.007 -0.4832 -0.9426  0.7619
  114MOL    H1136397   5.314   6.570   4.039 -0.1815  0.8332 -0.7009
  114MOL    H1236398   5.036   6.456   3.736  0.9268 -1.4990 -0.0616
  114MOL    H1336399   5.216   6.334   3.608 -2.1662  1.2784 -0.2906
  114MOL    H1436400   5.446   6.336   3.693 -0.7934  0.7794 -0.1353
  114MOL    H1536401   5.638   6.360   4.106  1.1839 -2.0450  0.4254
  114MOL    H1636402   5.472   6.313   4.094 -0.2889 -0.0010  0.0100
  114MOL    H1736403   5.625   6.460   3.873 -1.8603  2.7200 -1.9319
  114MOL    C1836404   5.610   6.206   3.952  0.0698 -0.4129 -0.0830
  114MOL    C1936405   5.753   6.230   3.901  0.3682  0.4528 -0.2481
  114MOL    C2036406   5.867   6.236   3.979  0.0297  0.1917 -0.1544
  114MOL    C2136407   5.991   6.275   3.930 -0.3179  0.3507 -0.2513
  114MOL   Cl2236408   6.133   6.272   4.031 -0.2346  0.2897  0.3265
  114MOL    C2336409   6.000   6.305   3.792 -0.6395 -0.1409 -0.4424
  114MOL    C2436410   5.888   6.296   3.709 -0.1242 -0.4936 -0.0508
  114MOL    C2536411   5.763   6.259   3.765  0.4226 -0.4387  0.2197
  114MOL    C2636412   5.607   6.072   4.033 -0.2646 -0.1252  0.0937
  114MOL    H2736413   5.541   6.195   3.868  1.1950 -0.6588 -0.9868
  114MOL    H2836414   5.851   6.220   4.084 -1.0890  1.3910 -0.1265
  114MOL    H2936415   6.094   6.337   3.748 -1.0467  0.9568 -0.5294
  114MOL    H3036416   5.892   6.316   3.603  2.0757 -1.0852 -0.1022
  114MOL    H3136417   5.673   6.265   3.705  0.3973  0.5800  0.3491
  114MOL    H3236418   5.656   5.994   3.973  0.6179  0.1983  0.3882
  114MOL    H3336419   5.679   6.092   4.113  1.7502 -2.6767 -0.9878
  114MOL    C3436420   5.473   6.011   4.082  0.2991  0.2393 -1.3439
  114MOL    C3536421   5.353   6.051   3.995  0.2726 -0.4496  0.2141
  114MOL    C3636422   5.257   6.146   4.031 -0.0204 -0.1473 -0.4802
  114MOL    C3736423   5.140   6.166   3.950 -0.0384  0.7566  0.5630
  114MOL   Cl3836424   5.004   6.253   3.995 -0.4709  0.3195 -0.5618
  114MOL    C3936425   5.126   6.088   3.832 -0.2717  0.5563 -0.0566
  114MOL    C4036426   5.226   6.001   3.796  0.0079 -0.0686  1.0040
  114MOL    C4136427   5.347   5.984   3.873  1.0097 -0.0724  0.1780
  114MOL    C4236428   5.482   5.861   4.114 -0.2018  0.1699  0.2036
  114MOL    H4336429   5.434   6.058   4.173  0.5305 -1.2011 -0.5000
  114MOL    H4436430   5.272   6.202   4.122  0.5171  0.9752 -1.2527
  114MOL    H4536431   5.032   6.082   3.779  0.6705  0.8738 -1.7947
  114MOL    H4636432   5.218   5.942   3.706  0.8416  0.4584  0.5787
  114MOL    H4736433   5.425   5.921   3.832  1.0698 -0.9123  1.5776
  114MOL    H4836434   5.383   5.816   4.120  1.4719 -3.9010 -0.7016
  114MOL    H4936435   5.517   5.820   4.019 -2.2946  0.9062 -0.9064
  114MOL    C5036436   5.572   5.829   4.241 -0.7270 -0.6749  0.5357
  114MOL    C5136437   5.507   5.846   4.377 -0.0842  0.3683 -0.2233
  114MOL    C5236438   5.394   5.765   4.411  0.4179  0.5499  0.4218
  114MOL    C5336439   5.333   5.777   4.539 -0.6378 -0.0339  0.4948
  114MOL   Cl5436440   5.208   5.671   4.580 -0.2190  0.0605  0.1043
  114MOL    C5536441   5.373   5.877   4.630  0.7310  0.0182 -0.1088
  114MOL    C5636442   5.471   5.967   4.588 -0.1460 -0.3989  1.5046
  114MOL    C5736443   5.536   5.954   4.464  0.5415 -0.5441 -0.3967
  114MOL    C5836444   5.627   5.680   4.222 -0.0003  0.0430  0.0974
  114MOL    H5936445   5.665   5.886   4.241 -0.4539 -1.0874 -1.1717
  114MOL    H6036446   5.373   5.690   4.336 -0.3261  0.4874  0.6914
  114MOL    H6136447   5.323   5.891   4.724 -0.1432  1.2314 -0.7531
  114MOL    H6236448   5.494   6.043   4.661  0.0090  0.0115  1.0315
  114MOL    H6336449   5.619   6.022   4.450 -1.4321  1.9242 -0.4358
  114MOL    H6436450   5.653   5.632   4.316 -1.1356 -1.1281 -0.1700
  114MOL    H6536451   5.544   5.624   4.180  0.4179 -1.4285  1.2120
  114MOL    C6636452   5.743   5.674   4.123 -0.5180 -0.2698  0.2158
  114MOL    C6736453   5.867   5.750   4.174  0.6980  0.1697  0.2976
  114MOL    C6836454   5.924   5.703   4.295 -0.0860 -0.4169  0.0446
  114MOL    C6936455   6.051   5.749   4.334  0.1792  0.0663  0.1328
  114MOL   Cl7036456   6.142   5.677   4.466  0.3417 -0.2754 -0.2498
  114MOL    C7136457   6.103   5.866   4.268  0.3178 -0.3563 -0.0393
  114MOL    C7236458   6.031   5.921   4.156 -0.1534 -0.1581  0.3742
  114MOL    C7336459   5.917   5.860   4.105  0.2238 -0.0682 -0.0514
  114MOL    C7436460   5.787   5.534   4.075 -0.1029  0.5833 -0.2358
  114MOL    H7536461   5.714   5.734   4.037 -0.1779  1.7083  1.4643
  114MOL    H7636462   5.871   5.629   4.353 -1.5154  1.1745  0.8097
  114MOL    H7736463   6.191   5.919   4.304 -0.2471 -0.1857  1.1191
  114MOL    H7836464   6.065   6.008   4.101 -2.1434 -0.2535 -1.0445
  114MOL    H7936465   5.869   5.886   4.012 -0.4382 -4.0729 -0.9120
  114MOL    H8036466   5.877   5.541   4.015  1.5096  0.8775  2.1462
  114MOL    H8136467   5.822   5.471   4.157 -1.1802 -0.0335 -0.2302
  114MOL    C8236468   5.680   5.450   4.003 -0.0160 -0.0436 -0.5507
  114MOL    C8336469   5.628   5.532   3.885 -0.0408  0.2854 -0.2579
  114MOL    C8436470   5.487   5.557   3.873  0.7415 -0.9885  0.1249
  114MOL    C8536471   5.438   5.643   3.769  0.0015 -0.3613 -0.8473
  114MOL   Cl8636472   5.268   5.685   3.760  0.2846 -0.2512 -0.5771
  114MOL    C8736473   5.539   5.699   3.679 -0.3480 -0.4140 -0.2117
  114MOL    C8836474   5.672   5.676   3.692 -0.3894 -0.3241 -0.3858
  114MOL    C8936475   5.710   5.583   3.787 -0.0638 -0.1787 -0.5798
  114MOL    C9036476   5.744   5.320   3.953  0.8793 -0.1578  0.1961
  114MOL    H9136477   5.599   5.435   4.074  1.9016  1.1890  1.9795
  114MOL    H9236478   5.412   5.524   3.943  1.0158 -0.7147  0.5490
  114MOL    H9336479   5.493   5.764   3.606 -1.9267 -1.7455 -0.4342
  114MOL    H9436480   5.742   5.732   3.631 -1.0361  0.3818 -0.4963
  114MOL    H9536481   5.815   5.558   3.790  0.1585  0.8570  0.3932
  114MOL    H9636482   5.825   5.341   3.884 -0.9659  1.2521 -1.6137
  114MOL    H9736483   5.802   5.272   4.032  0.2016  1.1598  1.5040
  114MOL    C9836484   5.640   5.221   3.887  0.2498 -0.2114  0.1756
  114MOL    C9936485   5.709   5.113   3.800 -0.2463  0.0392 -0.1212
  114MOL   C10036486   5.843   5.065   3.823  0.7985  0.3102 -0.3296
  114MOL   C10136487   5.901   4.976   3.734 -0.9517  0.6211  0.8860
  114MOL  Cl10236488   6.057   4.921   3.761  0.0225 -0.3980 -0.5502
  114MOL   C10336489   5.834   4.927   3.618 -0.4090  0.3291  0.2295
  114MOL   C10436490   5.706   4.978   3.597 -0.4232  0.0348  0.0838
  114MOL   C10536491   5.642   5.067   3.687  0.1324 -0.1546 -0.3493
  114MOL   C10636492   5.546   5.165   4.001 -0.3252  0.1045  0.0890
  114MOL   H10736493   5.568   5.273   3.824  0.0163 -1.9801 -1.0474
  114MOL   H10836494   5.894   5.108   3.908 -1.0122  2.9014 -0.4870
  114MOL   H10936495   5.881   4.855   3.553 -1.0679 -0.9650  1.1702
  114MOL   H11036496   5.644   4.932   3.521  1.2402  0.1066 -1.3431
  114MOL   H11136497   5.536   5.084   3.680 -0.0097  1.1677  3.8233
  114MOL   H11236498   5.574   5.061   4.021  1.4775  0.6040  0.2578
  114MOL   H11336499   5.571   5.217   4.093 -0.0003 -1.6835  1.0449
  114MOL   C11436500   5.390   5.174   3.967  0.1283 -0.1523  0.0469
  114MOL   C11536501   5.342   5.087   3.852 -0.1632 -0.3975  0.4241
  114MOL   C11636502   5.384   4.950   3.827 -0.6498  0.7569  0.1196
  114MOL   C11736503   5.330   4.874   3.715  0.0112 -0.0174 -0.1825
  114MOL  Cl11836504   5.392   4.713   3.700 -0.1041  0.2104 -0.2534
  114MOL   C11936505   5.226   4.924   3.637 -0.6484  0.6514 -0.7744
  114MOL   C12036506   5.182   5.053   3.668 -0.5881 -0.9110  0.9989
  114MOL   C12136507   5.239   5.134   3.768 -0.4540  0.4237  0.7996
  114MOL   C12236508   5.310   5.142   4.096  0.1050  0.0511  0.1354
  114MOL   H12336509   5.369   5.279   3.947 -1.9723 -0.2478  1.6343
  114MOL   H12436510   5.464   4.905   3.884  0.1250 -0.1016 -1.6001
  114MOL   H12536511   5.178   4.866   3.559 -1.2555  1.3592 -0.9332
  114MOL   H12636512   5.089   5.083   3.620 -0.3157 -2.1960 -0.3622
  114MOL   H12736513   5.188   5.227   3.787 -5.7176 -1.7317 -1.9878
  114MOL   H12836514   5.228   5.076   4.068  2.1384 -3.6874  2.6090
  114MOL   H12936515   5.370   5.067   4.149 -2.1938 -1.8842  0.0929
  114MOL   C13036516   5.249   5.259   4.176 -0.3330  1.4197  0.8815
  114MOL   C13136517   5.149   5.329   4.086 -0.3357  1.0459  0.5821
  114MOL   C13236518   5.037   5.261   4.034 -0.0447 -0.3460  0.5600
  114MOL   C13336519   4.955   5.321   3.937  0.0239 -0.3920 -0.0619
  114MOL  Cl13436520   4.840   5.231   3.856  0.0483  0.2828  0.4770
  114MOL   C13536521   4.968   5.460   3.907 -0.9313 -0.0947  0.6208
  114MOL   C13636522   5.066   5.530   3.978  0.8791  0.6790 -0.4416
  114MOL   C13736523   5.165   5.465   4.055  0.3278  0.5059  0.2391
  114MOL   C13836524   5.173   5.220   4.309 -0.0664 -0.2276  0.3376
  114MOL   H13936525   5.330   5.329   4.201  1.3729  1.2477 -3.5626
  114MOL   H14036526   5.007   5.160   4.058 -1.2973 -0.6147 -1.9069
  114MOL   H14136527   4.906   5.513   3.836 -0.2472 -1.3423 -0.9146
  114MOL   H14236528   5.071   5.638   3.968 -1.1880  0.8223 -0.0619
  114MOL   H14336529   5.237   5.522   4.112  1.6249 -2.3015  1.5392
  114MOL   H14436530   5.137   5.313   4.353 -0.9019 -0.7868  0.8705
  114MOL   H14536531   5.082   5.161   4.293 -0.2777 -0.4413  2.2183
  114MOL   C14636532   5.251   5.138   4.418 -0.3953 -0.0672  0.5614
  114MOL   C14736533   5.294   5.215   4.541 -0.3114  0.5020 -0.5252
  114MOL   C14836534   5.412   5.185   4.607 -0.7703  0.1482 -0.2107
  114MOL   C14936535   5.443   5.253   4.729  0.2328  0.3789 -0.5066
  114MOL  Cl15036536   5.573   5.198   4.834 -0.0673  0.1781 -0.0742
  114MOL   C15136537   5.348   5.334   4.792 -0.2904 -0.8026  0.3472
  114MOL   C15236538   5.225   5.370   4.731 -0.4187 -0.5498 -0.8384
  114MOL   C15336539   5.208   5.309   4.603  0.3562  0.5082 -0.6105
  114MOL   C15436540   5.176   5.008   4.452 -0.1577  0.1386  0.0386
  114MOL   H15536541   5.340   5.107   4.365 -0.1130 -0.0424  1.0182
  114MOL   H15636542   5.480   5.106   4.579  0.3762  0.9262  0.3380
  114MOL   H15736543   5.372   5.373   4.890  1.2322 -2.1262  0.5183
  114MOL   H15836544   5.155   5.438   4.776  2.6649  1.9091  0.4697
  114MOL   H15936545   5.107   5.320   4.565 -0.6155 -0.8868  1.4707
  114MOL   H16036546   5.225   4.962   4.539  0.9512  0.6688 -0.3046
  114MOL   H16136547   5.077   5.030   4.492 -0.4214 -1.5386  0.3783
  114MOL   C16236548   5.175   4.900   4.339 -0.1348  0.3118 -0.2573
  114MOL   C16336549   5.311   4.859   4.291 -0.2494  0.3033  0.5002
  114MOL   C16436550   5.424   4.868   4.365 -0.0574 -0.3546 -0.0862
  114MOL   C16536551   5.541   4.807   4.316 -0.1846 -0.5241 -0.5213
  114MOL  Cl16636552   5.678   4.802   4.421  0.0092 -0.3364 -0.2774
  114MOL   C16736553   5.557   4.754   4.190 -0.3732 -0.4860 -0.2693
  114MOL   C16836554   5.439   4.744   4.112  0.1152 -0.3029 -0.2823
  114MOL   C16936555   5.315   4.796   4.164 -0.3221 -0.4058  0.5775
  114MOL   C17036556   5.081   4.774   4.357 -0.4635 -0.8597  0.0786
  114MOL   H17136557   5.132   4.946   4.250  0.2474  1.5536  0.1960
  114MOL   H17236558   5.421   4.921   4.459 -1.7362 -0.3912 -0.0997
  114MOL   H17336559   5.648   4.705   4.156 -0.0844 -0.9226  1.1092
  114MOL   H17436560   5.432   4.681   4.025  0.6733  0.8671 -1.1913
  114MOL   H17536561   5.230   4.775   4.101  0.1323  0.3039 -0.2822
  114MOL   H17636562   5.088   4.709   4.270  1.8843 -0.5401  0.0072
  114MOL   H17736563   5.129   4.712   4.433  0.6562 -0.5931 -0.4001
  114MOL   C17836564   4.942   4.808   4.396 -0.3021 -0.3778  0.2667
  114MOL   C17936565   4.862   4.880   4.292  0.1372 -0.0452  1.0034
  114MOL   C18036566   4.796   4.999   4.326 -0.1332  0.2347  0.6613
  114MOL   C18136567   4.719   5.070   4.237  0.0304 -0.1100  0.3142
  114MOL  Cl18236568   4.619   5.193   4.295 -0.1812  0.1496  0.1449
  114MOL   C18336569   4.706   5.029   4.103 -0.5684 -0.0797  0.5708
  114MOL   C18436570   4.768   4.911   4.065 -0.5063 -0.3153 -0.4610
  114MOL   C18536571   4.840   4.834   4.157  0.5340 -0.1710 -0.5224
  114MOL   C18636572   4.872   4.673   4.437  0.1718  0.4682 -0.1656
  114MOL   H18736573   4.945   4.858   4.492  5.6306  0.5974 -0.2157
  114MOL   H18836574   4.794   5.031   4.429 -1.6586 -0.1082  0.7623
  114MOL   H18936575   4.640   5.077   4.033  1.7187  2.5794  0.1237
  114MOL   H19036576   4.753   4.876   3.964 -1.7693 -0.3779 -0.2644
  114MOL   H19136577   4.890   4.748   4.115  0.5149  0.1685 -1.2590
  114MOL   H19236578   4.860   4.613   4.347 -0.8308 -0.4079  0.5473
  114MOL   H19336579   4.947   4.631   4.503  1.6165  2.4059 -0.5250
  114MOL   C19436580   4.734   4.676   4.513 -0.3014  0.2095 -0.0212
  114MOL   C19536581   4.658   4.548   4.490  1.2789 -0.0320  0.7621
  114MOL   C19636582   4.731   4.425   4.486 -0.1827  0.2768  0.1668
  114MOL   C19736583   4.667   4.300   4.491 -0.4574  0.1827 -0.3839
  114MOL  Cl19836584   4.750   4.151   4.492 -0.4827 -0.0028  0.4931
  114MOL   C19936585   4.528   4.297   4.504  0.3541 -1.1414 -0.5299
  114MOL   C20036586   4.462   4.418   4.523  0.3429  0.1451  0.5295
  114MOL   C20136587   4.520   4.542   4.509  0.4718 -0.2723 -0.1954
  114MOL   C20236588   4.755   4.693   4.667  0.6815 -0.4465 -0.8802
  114MOL   H20336589   4.674   4.758   4.474 -0.8489  0.8227  2.0774
  114MOL   H20436590   4.839   4.421   4.495 -0.0230  1.8013 -0.9184
  114MOL   H20536591   4.468   4.208   4.515 -0.3534 -0.3488  2.5358
  114MOL   H20636592   4.355   4.413   4.537  0.2250  1.4149  0.1735
  114MOL   H20736593   4.474   4.638   4.529  2.5431  0.8988 -0.8792
  114MOL   H20836594   4.655   4.705   4.709  1.5210  1.6699  0.6032
  114MOL   H20936595   4.792   4.600   4.710 -0.5957  0.5018  2.3652
  114MOL   C21036596   4.831   4.817   4.725  0.4714 -0.5527 -0.2297
  114MOL   C21136597   4.765   4.954   4.693 -0.2591  0.4296  0.1235
  114MOL   C21236598   4.839   5.072   4.699 -0.4864  0.7641 -0.4335
  114MOL   C21336599   4.785   5.197   4.664 -0.1618 -0.4293 -0.5176
  114MOL  Cl21436600   4.871   5.345   4.688 -0.0278  0.1172 -0.2344
  114MOL   C21536601   4.654   5.209   4.640 -0.5433 -0.6924  0.3740
  114MOL   C21636602   4.576   5.100   4.624  0.3268 -0.0693  0.8133
  114MOL   C21736603   4.632   4.971   4.646 -0.2145 -0.0756  0.0367
  114MOL   C21836604   4.859   4.799   4.871 -0.1070 -0.1664 -0.2458
  114MOL   H21936605   4.935   4.814   4.691  1.1341  0.1095  1.7000
  114MOL   H22036606   4.945   5.077   4.720 -0.4874  1.2911 -0.5604
  114MOL   H22136607   4.609   5.306   4.628 -0.1355 -0.5131  0.2680
  114MOL   H22236608   4.473   5.108   4.595  0.5609  1.0112  0.2563
  114MOL   H22336609   4.566   4.886   4.636 -0.6081  0.5177 -2.9371
  114MOL   H22436610   4.913   4.886   4.907 -2.1105  0.7640  0.5720
  114MOL   H22536611   4.766   4.797   4.927  0.7199  0.9339  1.2116
  114MOL   C22636612   4.958   4.680   4.915  0.7382  0.6229 -0.3895
  114MOL   C22736613   5.086   4.672   4.834 -0.5235  0.9937  0.3997
  114MOL   C22836614   5.186   4.772   4.839 -0.0148 -0.1162 -0.3366
  114MOL   C22936615   5.303   4.767   4.757  0.2263  0.0696 -0.0917
  114MOL  Cl23036616   5.413   4.899   4.759  0.1003 -0.0276 -0.3676
  114MOL   C23136617   5.324   4.646   4.683  0.3477  0.3284  0.8300
  114MOL   C23236618   5.225   4.546   4.679  0.2804  0.4292 -0.0941
  114MOL   C23336619   5.107   4.552   4.757  0.7695  0.1704  0.1049
  114MOL   C23436620   4.974   4.680   5.073  0.0103  0.3747 -0.4998
  114MOL   H23536621   4.908   4.585   4.893 -2.4906  2.2431 -0.3905
  114MOL   H23636622   5.167   4.849   4.913 -0.5529 -0.9344  0.3717
  114MOL   H23736623   5.414   4.640   4.625 -0.9521 -3.8145 -0.9316
  114MOL   H23836624   5.239   4.454   4.623 -0.3040  1.8141 -2.5727
  114MOL   H23936625   5.038   4.470   4.757  1.3052 -0.2834 -1.0794
  114MOL   H24036626   4.997   4.780   5.109  2.8254 -0.3417 -0.1829
  114MOL   H24136627   4.883   4.654   5.127  0.6194 -1.6859 -0.4128
  114MOL   C24236628   5.083   4.571   5.127 -0.1746  0.1163  0.2337
  114MOL   C24336629   5.211   4.641   5.185 -0.0559 -0.1392  0.3257
  114MOL   C24436630   5.206   4.706   5.310 -0.3405  0.0332 -0.9315
  114MOL   C24536631   5.314   4.775   5.358 -0.1494 -0.5365  0.3413
  114MOL  Cl24636632   5.316   4.843   5.514 -0.3707  0.0131 -0.0312
  114MOL   C24736633   5.427   4.801   5.275  0.1077  0.1460 -0.5042
  114MOL   C24836634   5.428   4.743   5.144 -0.1579 -0.5940  0.9456
  114MOL   C24936635   5.320   4.665   5.100 -0.6285  0.8249 -0.3410
  114MOL   C25036636   5.025   4.476   5.233 -0.0204 -1.0999  0.4045
  114MOL   H25136637   5.113   4.501   5.049 -0.2177  0.4946 -0.1201
  114MOL   H25236638   5.123   4.695   5.378  0.1435  1.9793 -0.0192
  114MOL   H25336639   5.508   4.858   5.319 -1.0678  2.1193 -0.8610
  114MOL   H25436640   5.516   4.761   5.083 -0.3966 -1.4345  0.3445
  114MOL   H25536641   5.324   4.603   5.012 -1.3499 -0.5401  0.5671
  114MOL   H25636642   5.094   4.404   5.277  0.7803 -0.6306 -0.0772
  114MOL   H25736643   4.987   4.542   5.312  2.9002  1.2236 -0.0791
  114MOL   C25836644   4.905   4.397   5.193 -1.0491  0.4843  0.1173
  114MOL   C25936645   4.948   4.275   5.104 -0.0797 -0.3393  0.5988
  114MOL   C26036646   5.023   4.174   5.162 -0.5542 -0.2162 -0.2497
  114MOL   C26136647   5.055   4.062   5.088 -0.0526 -0.1920  0.7717
  114MOL  Cl26236648   5.127   3.934   5.175 -0.0774  0.6020 -0.3172
  114MOL   C26336649   5.016   4.050   4.948  0.6450 -0.0882  0.2936
  114MOL   C26436650   4.955   4.158   4.878 -1.1681 -0.0285 -0.1711
  114MOL   C26536651   4.928   4.271   4.960 -0.2577  0.2211 -0.4170
  114MOL   C26636652   4.834   4.355   5.323  0.5912  0.3944  0.0608
  114MOL   H26736653   4.836   4.452   5.129 -1.0402  0.4749  0.1004
  114MOL   H26836654   5.042   4.173   5.268  0.2493 -2.1121 -0.3914
  114MOL   H26936655   5.041   3.959   4.895  1.4176  1.1722 -1.5745
  114MOL   H27036656   4.928   4.155   4.774  1.4254  0.6465 -0.8791
  114MOL   H27136657   4.884   4.357   4.913 -1.7900 -1.5965 -2.3523
  114MOL   H27236658   4.905   4.302   5.387  0.3994  0.2262  0.1348
  114MOL   H27336659   4.810   4.443   5.383 -0.3472 -0.5475  1.0979
  114MOL   C27436660   4.704   4.269   5.308  0.4036 -0.6904  0.0082
  114MOL   C27536661   4.725   4.120   5.323 -0.4582  0.1343  0.4778
  114MOL   C27636662   4.809   4.053   5.412 -0.7432  0.4982  0.3088
  114MOL   C27736663   4.826   3.908   5.403  0.1580 -0.3787  0.2446
  114MOL  Cl27836664   4.961   3.843   5.501 -0.0255  0.2111  0.4894
  114MOL   C27936665   4.749   3.832   5.317  0.5114 -0.7291 -0.6308
  114MOL   C28036666   4.660   3.900   5.232 -0.0931 -0.4242 -0.3374
  114MOL   C28136667   4.649   4.037   5.236 -0.0819  0.6179  0.5463
  114MOL   C28236668   4.580   4.306   5.397  0.3272  0.1131  0.3464
  114MOL   H28336669   4.668   4.279   5.206  1.5175  1.1161 -0.2306
  114MOL   H28436670   4.878   4.106   5.475 -0.8875  2.3478 -1.0547
  114MOL   H28536671   4.774   3.727   5.319  1.0587 -0.5857  0.3050
  114MOL   H28636672   4.601   3.847   5.158 -1.5283  1.4040 -0.5529
  114MOL   H28736673   4.569   4.084   5.180 -0.2042  0.1561  0.3292
  114MOL   H28836674   4.502   4.230   5.393  1.5044 -1.1322  0.8478
  114MOL   H28936675   4.603   4.321   5.503  0.6846  1.1138  0.1329
  114MOL   C29036676   4.501   4.426   5.350 -0.2069 -0.6912 -0.2568
  114MOL   C29136677   4.363   4.429   5.413 -0.2102 -0.1580  0.3488
  114MOL   C29236678   4.347   4.460   5.550  0.2115 -0.1054 -0.0241
  114MOL   C29336679   4.220   4.476   5.605  0.2960  0.6427 -0.7869
  114MOL  Cl29436680   4.215   4.513   5.776  0.1355 -0.1035  0.2513
  114MOL   C29536681   4.107   4.461   5.527  0.0641  0.6224 -0.4515
  114MOL   C29636682   4.116   4.437   5.382  0.2168  0.5904  0.0972
  114MOL   C29736683   4.247   4.421   5.332 -0.1145  0.5556 -0.4310
  114MOL   C29836684   4.564   4.567   5.352 -0.2016  0.3686 -0.2288
  114MOL   H29936685   4.499   4.407   5.243  2.1549  0.8289 -0.6003
  114MOL   H30036686   4.435   4.483   5.608 -0.7955 -0.4250  1.6645
  114MOL   H30136687   4.014   4.462   5.583  0.4351 -2.5109  0.3432
  114MOL   H30236688   4.023   4.417   5.330 -0.3802 -1.7945  1.9997
  114MOL   H30336689   4.256   4.382   5.231  1.9252 -0.7205  0.2120
  114MOL   H30436690   4.596   4.584   5.455 -3.7666  0.3773  0.9273
  114MOL   H30536691   4.648   4.567   5.282 -0.7576 -2.1471 -0.9550
  114MOL   C30636692   4.465   4.681   5.312 -0.4686 -0.0684 -0.5137
  114MOL   C30736693   4.546   4.808   5.322 -0.3646  0.1938  0.1140
  114MOL   C30836694   4.516   4.895   5.428 -0.1584 -0.0396  0.0469
  114MOL   C30936695   4.589   5.011   5.442  0.5103  0.6154  0.1303
  114MOL  Cl31036696   4.551   5.124   5.573  0.0227  0.1605 -0.1473
  114MOL   C31136697   4.699   5.034   5.358  0.2928  0.0250  0.6475
  114MOL   C31236698   4.733   4.945   5.262 -0.0925  0.6539 -0.7862
  114MOL   C31336699   4.656   4.831   5.235 -0.5480  0.3801 -0.6989
  114MOL   C31436700   4.403   4.670   5.166 -0.0181  0.2895 -0.2708
  114MOL   H31536701   4.387   4.689   5.388  2.0830 -0.3978  2.2139
  114MOL   H31636702   4.440   4.872   5.501 -0.0296 -1.0877 -0.1425
  114MOL   H31736703   4.734   5.134   5.380 -0.1086 -0.4706  3.7330
  114MOL   H31836704   4.815   4.964   5.194  0.5838 -0.9933 -0.4623
  114MOL   H31936705   4.673   4.766   5.150 -0.3128  0.5749 -0.8046
  114MOL   H32036706   4.355   4.761   5.129 -0.0223 -0.4081 -2.0283
  114MOL   H32136707   4.482   4.640   5.097  1.0796  1.5418  0.4324
  114MOL   H32236708   4.322   4.597   5.165 -1.2731  1.6628  0.2551
  115MOL     C136709   2.651   2.624   1.840  0.0204  0.5861 -0.2355
  115MOL     C236710   2.612   2.579   1.978 -0.4691 -0.2099  0.2411
  115MOL     C336711   2.562   2.453   2.002  0.3066  0.3669 -0.1051
  115MOL     C436712   2.532   2.402   2.126 -0.3797 -0.2380  0.2602
  115MOL    Cl536713   2.452   2.258   2.138  0.1595  0.1697 -0.0732
  115MOL     C636714   2.564   2.480   2.235  1.1180  0.1296  0.3068
  115MOL     C736715   2.619   2.608   2.217 -0.3097 -0.0610 -1.0471
  115MOL     C836716   2.637   2.663   2.088 -0.3698  0.2510 -0.5247
  115MOL     C936717   2.799   2.617   1.814 -0.1541 -0.7974 -0.6348
  115MOL    H1036718   2.614   2.725   1.820  0.9796  1.5410  2.4755
  115MOL    H1136719   2.539   2.402   1.909  2.6631 -1.1019  0.0768
  115MOL    H1236720   2.531   2.454   2.334 -2.7627  0.4537 -0.8227
  115MOL    H1336721   2.638   2.660   2.311 -1.6308 -1.1178 -0.1799
  115MOL    H1436722   2.678   2.762   2.074  1.1610  0.0981  2.6085
  115MOL    H1536723   2.856   2.644   1.903 -0.5841 -1.9777  0.0081
  115MOL    H1636724   2.843   2.519   1.798  0.2405 -0.5605 -1.0117
  115MOL    H1736725   2.610   2.554   1.768  0.3184  0.3841 -0.2102
  115MOL    C1836726   2.848   2.716   1.706  0.4637 -0.3762  0.3810
  115MOL    C1936727   2.989   2.770   1.741  0.5653 -0.5969  0.1359
  115MOL    C2036728   2.984   2.887   1.819 -0.0887 -0.0128  0.9191
  115MOL    C2136729   3.102   2.941   1.864 -0.6730 -0.1271  0.3483
  115MOL   Cl2236730   3.084   3.106   1.918  0.0366  0.1208 -0.2375
  115MOL    C2336731   3.228   2.879   1.839  0.4007 -0.0076 -0.1500
  115MOL    C2436732   3.230   2.761   1.765 -0.7747  0.7088 -0.5810
  115MOL    C2536733   3.109   2.706   1.720  0.2628 -0.1158 -0.8239
  115MOL    C2636734   2.842   2.648   1.569  0.0706 -0.3005  0.6055
  115MOL    H2736735   2.786   2.805   1.700 -0.0247 -0.6175  1.7425
  115MOL    H2836736   2.887   2.931   1.837  0.5694  0.8654  2.3629
  115MOL    H2936737   3.324   2.923   1.862  1.2832 -1.9356 -0.0646
  115MOL    H3036738   3.328   2.718   1.748 -0.1788  0.9331  2.0540
  115MOL    H3136739   3.115   2.616   1.661 -2.0837  0.2736 -1.7061
  115MOL    H3236740   2.902   2.557   1.568 -1.9781 -1.6929  2.4796
  115MOL    H3336741   2.741   2.612   1.550 -1.1370  2.9958  0.4366
  115MOL    C3436742   2.888   2.741   1.457 -0.1059 -0.5227 -0.3653
  115MOL    C3536743   2.910   2.664   1.329  0.2545 -0.3471 -0.9969
  115MOL    C3636744   2.798   2.598   1.265  0.4897  0.4659 -0.1653
  115MOL    C3736745   2.816   2.540   1.139  0.0279 -0.0643 -0.1895
  115MOL   Cl3836746   2.684   2.465   1.049  0.3911 -0.1152 -0.1780
  115MOL    C3936747   2.940   2.543   1.073 -0.1620 -0.1200 -0.4367
  115MOL    C4036748   3.053   2.599   1.139  0.5424 -0.3343 -1.3615
  115MOL    C4136749   3.037   2.661   1.268 -0.8356  0.4524 -0.5091
  115MOL    C4236750   2.799   2.868   1.442  0.0496 -0.9377 -0.6483
  115MOL    H4336751   2.986   2.775   1.490  0.0930 -2.1436  0.7692
  115MOL    H4436752   2.699   2.595   1.307  1.2487  0.3958  1.6736
  115MOL    H4536753   2.938   2.504   0.972  0.4347 -0.1009 -0.4579
  115MOL    H4636754   3.149   2.600   1.091  0.8698  0.5310 -0.7146
  115MOL    H4736755   3.120   2.716   1.309 -1.5919  0.7063  0.6950
  115MOL    H4836756   2.777   2.877   1.336 -0.7071 -2.2623 -0.6113
  115MOL    H4936757   2.703   2.857   1.492 -0.7361  1.3988 -1.5885
  115MOL    C5036758   2.851   3.015   1.485 -0.1676 -0.4367 -0.1987
  115MOL    C5136759   2.989   3.052   1.431 -1.6073  0.0313 -0.4720
  115MOL    C5236760   3.104   3.053   1.513 -0.1119 -0.1579  0.4782
  115MOL    C5336761   3.230   3.065   1.457 -0.1581 -0.7495  0.7601
  115MOL   Cl5436762   3.360   3.056   1.567 -0.4658 -0.1225 -0.0401
  115MOL    C5536763   3.246   3.087   1.320  0.0935  0.1887  0.4781
  115MOL    C5636764   3.140   3.084   1.231 -0.2342 -0.5048 -0.2457
  115MOL    C5736765   3.011   3.060   1.288 -0.1595  0.1329 -0.1768
  115MOL    C5836766   2.752   3.130   1.467  0.3159 -0.0808 -0.1420
  115MOL    H5936767   2.854   3.008   1.593 -2.0514  2.4203  0.0807
  115MOL    H6036768   3.093   3.038   1.619 -1.5873 -0.5837  0.2837
  115MOL    H6136769   3.348   3.103   1.287 -0.0151 -1.0143 -0.4837
  115MOL    H6236770   3.152   3.086   1.123  0.2203 -0.3771 -0.1910
  115MOL    H6336771   2.918   3.066   1.233 -0.3092  0.3210  0.0954
  115MOL    H6436772   2.783   3.219   1.521 -0.6175  1.4563 -2.0590
  115MOL    H6536773   2.757   3.168   1.365  0.4407  1.8894  0.5921
  115MOL    C6636774   2.612   3.105   1.511  0.2890 -1.0330 -0.2561
  115MOL    C6736775   2.588   3.067   1.664  0.2370  0.5136  0.3491
  115MOL    C6836776   2.461   3.007   1.690  0.1602  0.5493 -0.4724
  115MOL    C6936777   2.426   2.960   1.812 -0.4373  0.5596 -0.3856
  115MOL   Cl7036778   2.285   2.866   1.827  0.1623  0.6090 -0.1632
  115MOL    C7136779   2.516   2.976   1.920 -0.1580  0.5015  0.2579
  115MOL    C7236780   2.634   3.052   1.896 -0.1856 -0.5709  0.0260
  115MOL    C7336781   2.674   3.096   1.765  0.1287 -0.5932 -0.0803
  115MOL    C7436782   2.529   3.234   1.486  0.4953  0.3523 -0.0304
  115MOL    H7536783   2.560   3.033   1.448 -0.3161  0.1010 -1.0759
  115MOL    H7636784   2.396   2.987   1.606 -0.9510 -0.2170  0.5660
  115MOL    H7736785   2.488   2.948   2.020  3.2063  0.4530  1.2562
  115MOL    H7836786   2.696   3.080   1.980 -0.7886 -0.7150  0.5206
  115MOL    H7936787   2.772   3.140   1.751 -0.8876  1.0734 -2.2669
  115MOL    H8036788   2.469   3.255   1.575 -1.3598 -3.3071 -0.3537
  115MOL    H8136789   2.588   3.324   1.503  1.1349 -0.1544  0.4634
  115MOL    C8236790   2.447   3.227   1.356  0.7665  0.4827 -1.0435
  115MOL    C8336791   2.317   3.140   1.373 -0.2624  0.2941 -0.0432
  115MOL    C8436792   2.214   3.183   1.463 -0.4055 -0.4910  0.2077
  115MOL    C8536793   2.108   3.096   1.494 -0.5222 -0.3326 -0.1604
  115MOL   Cl8636794   1.983   3.134   1.599  0.1094  0.2198 -0.1273
  115MOL    C8736795   2.099   2.977   1.421  0.2753  0.6307 -1.1303
  115MOL    C8836796   2.189   2.939   1.327 -0.2348  0.6193 -0.3336
  115MOL    C8936797   2.307   3.015   1.307 -0.0968 -0.0794 -0.1247
  115MOL    C9036798   2.418   3.365   1.292  0.0056  0.4457 -0.6665
  115MOL    H9136799   2.504   3.175   1.279  1.7501  1.0322 -0.7099
  115MOL    H9236800   2.230   3.273   1.522  0.1671 -1.2115  1.1771
  115MOL    H9336801   2.017   2.910   1.444  1.8077 -0.5420  1.0510
  115MOL    H9436802   2.182   2.845   1.274  0.3434 -0.6159  1.7294
  115MOL    H9536803   2.382   2.984   1.235  2.5078  2.1606  1.5356
  115MOL    H9636804   2.329   3.412   1.334 -0.2914 -1.0673  0.4372
  115MOL    H9736805   2.495   3.437   1.318  1.9826 -0.4780 -3.7450
  115MOL    C9836806   2.402   3.358   1.137 -0.4526 -0.2404 -0.0221
  115MOL    C9936807   2.261   3.401   1.104  0.0266 -0.4682  0.4719
  115MOL   C10036808   2.172   3.309   1.044  0.5905 -0.4528  0.1713
  115MOL   C10136809   2.044   3.350   0.992 -0.6057  0.0223  0.8937
  115MOL  Cl10236810   1.928   3.235   0.941  0.0374  0.1620  0.2228
  115MOL   C10336811   2.016   3.489   1.000 -1.0242 -0.6541 -0.1002
  115MOL   C10436812   2.114   3.580   1.042 -0.8443 -0.8765  0.5720
  115MOL   C10536813   2.236   3.537   1.102  0.1444  0.6406 -0.4692
  115MOL   C10636814   2.502   3.433   1.053 -0.1260  0.0007 -0.0720
  115MOL   H10736815   2.401   3.252   1.112 -0.7672 -0.0532 -0.8135
  115MOL   H10836816   2.194   3.203   1.047 -2.5504 -1.1837 -0.0502
  115MOL   H10936817   1.918   3.533   0.989 -0.4161  0.7743  0.1319
  115MOL   H11036818   2.082   3.683   1.036  0.8969 -0.3634 -0.2313
  115MOL   H11136819   2.307   3.609   1.141  0.0322 -0.0864  1.0994
  115MOL   H11236820   2.462   3.448   0.953 -0.8728  0.9889  0.3624
  115MOL   H11336821   2.516   3.530   1.101  1.0947 -0.3042  0.2176
  115MOL   C11436822   2.639   3.371   1.031  0.3082  0.7574 -0.1103
  115MOL   C11536823   2.634   3.235   0.956 -0.0947  0.1723 -0.0229
  115MOL   C11636824   2.683   3.119   1.013 -0.0037 -0.1679  0.4676
  115MOL   C11736825   2.679   2.999   0.939  0.2490 -0.0387 -0.6606
  115MOL  Cl11836826   2.742   2.846   1.008 -0.0084 -0.5447 -0.0369
  115MOL   C11936827   2.621   2.991   0.808 -0.2990 -0.4995 -0.2503
  115MOL   C12036828   2.557   3.100   0.757 -0.0295 -0.2840  0.5019
  115MOL   C12136829   2.563   3.222   0.832 -0.0440 -0.5475  1.1953
  115MOL   C12236830   2.733   3.472   0.964  0.3560 -0.1694 -0.3695
  115MOL   H12336831   2.675   3.344   1.130 -0.5865 -0.9775 -0.2370
  115MOL   H12436832   2.721   3.116   1.113  1.5066  1.3458 -0.0265
  115MOL   H12536833   2.615   2.893   0.762 -0.9391  0.4297 -2.2041
  115MOL   H12636834   2.511   3.096   0.659  1.2161 -0.6875 -0.0771
  115MOL   H12736835   2.513   3.308   0.790  2.5564 -0.3444 -1.6320
  115MOL   H12836836   2.816   3.415   0.921  0.3645  0.1772 -0.8050
  115MOL   H12936837   2.680   3.507   0.876 -3.4336 -0.4976  1.6802
  115MOL   C13036838   2.780   3.590   1.057  0.2055 -0.2702 -0.4694
  115MOL   C13136839   2.838   3.546   1.190 -0.2695 -0.1054  0.1026
  115MOL   C13236840   2.767   3.575   1.312  0.1087  0.8009  0.5559
  115MOL   C13336841   2.824   3.551   1.439  1.1136 -0.0998 -0.6339
  115MOL  Cl13436842   2.728   3.590   1.583 -0.2198  0.1131 -0.3785
  115MOL   C13536843   2.942   3.475   1.451  0.4149 -0.0447 -0.1683
  115MOL   C13636844   3.012   3.441   1.333 -0.0112  0.5455 -0.5172
  115MOL   C13736845   2.965   3.484   1.209 -0.3221  0.1703 -0.6408
  115MOL   C13836846   2.870   3.683   0.983 -0.9055 -0.1670 -0.5274
  115MOL   H13936847   2.693   3.648   1.086  0.8565  0.0447  0.8531
  115MOL   H14036848   2.677   3.632   1.298 -1.0117 -0.8104  1.1478
  115MOL   H14136849   2.995   3.439   1.537  1.0682 -0.1680 -0.6175
  115MOL   H14236850   3.111   3.398   1.335 -0.1517  0.2233 -0.5398
  115MOL   H14336851   3.027   3.460   1.123 -1.3991  0.1006 -1.4088
  115MOL   H14436852   2.943   3.718   1.055 -3.4329  2.5219  0.8403
  115MOL   H14536853   2.923   3.611   0.920 -2.0293  0.1474 -1.8722
  115MOL   C14636854   2.796   3.800   0.914  0.3314  0.2775 -0.2318
  115MOL   C14736855   2.724   3.906   1.000 -0.5724 -0.2646  0.1820
  115MOL   C14836856   2.639   4.006   0.941 -0.2887 -0.1554  0.1410
  115MOL   C14936857   2.585   4.111   1.023  0.9006  0.8536  0.2114
  115MOL  Cl15036858   2.484   4.222   0.947  0.2709  0.3044  0.4123
  115MOL   C15136859   2.624   4.118   1.156  0.7333 -0.1234  0.2015
  115MOL   C15236860   2.705   4.025   1.214 -0.0000  0.0291 -1.0734
  115MOL   C15336861   2.759   3.920   1.142  0.2066 -0.6709 -0.2302
  115MOL   C15436862   2.894   3.882   0.826 -0.4219 -0.3519 -0.2523
  115MOL   H15536863   2.718   3.757   0.852 -0.4837  0.8790  0.3647
  115MOL   H15636864   2.618   4.007   0.835 -2.7497  1.2326  0.5978
  115MOL   H15736865   2.598   4.202   1.218 -0.1522 -0.0698 -0.2364
  115MOL   H15836866   2.731   4.036   1.318  0.0838 -1.1239 -0.9629
  115MOL   H15936867   2.831   3.852   1.185  0.2797 -1.5519 -1.7019
  115MOL   H16036868   2.848   3.979   0.803 -1.8699 -0.7901  0.7186
  115MOL   H16136869   2.983   3.916   0.880 -0.8598 -0.6837  0.6871
  115MOL   C16236870   2.947   3.812   0.694 -0.3508  0.3402  0.2510
  115MOL   C16336871   2.836   3.761   0.612  0.2747 -0.2354 -0.1827
  115MOL   C16436872   2.808   3.621   0.613 -0.2937  0.0826 -0.1541
  115MOL   C16536873   2.705   3.561   0.531  0.0672 -0.0422  0.2654
  115MOL  Cl16636874   2.683   3.391   0.536  0.2981 -0.3009  0.1998
  115MOL   C16736875   2.633   3.643   0.441 -0.0931  0.4694 -0.2959
  115MOL   C16836876   2.656   3.786   0.443  0.4125  0.4947  0.0417
  115MOL   C16936877   2.753   3.842   0.529 -0.1051  0.1454 -0.5401
  115MOL   C17036878   3.041   3.910   0.622 -0.2090 -0.4936  0.2444
  115MOL   H17136879   3.005   3.725   0.722 -1.3382 -0.4224 -0.0570
  115MOL   H17236880   2.858   3.554   0.682 -0.6485 -0.2918 -0.2586
  115MOL   H17336881   2.564   3.593   0.374 -0.4161  0.4401  0.0573
  115MOL   H17436882   2.599   3.849   0.377 -0.2672 -1.8884 -1.7295
  115MOL   H17536883   2.773   3.948   0.528 -0.0504  0.1368 -0.0857
  115MOL   H17636884   2.984   3.999   0.595  1.8045  1.3503  1.9316
  115MOL   H17736885   3.123   3.944   0.685  0.3166 -1.5490  0.1479
  115MOL   C17836886   3.100   3.850   0.491  0.3568  0.1104 -0.2884
  115MOL   C17936887   3.157   3.966   0.403  0.1273  0.1794 -0.2621
  115MOL   C18036888   3.101   3.998   0.278 -0.2681 -0.3744  0.0672
  115MOL   C18136889   3.157   4.103   0.195  0.0177  0.1239  0.2792
  115MOL  Cl18236890   3.105   4.134   0.037 -0.0822 -0.2527 -0.2218
  115MOL   C18336891   3.252   4.185   0.250 -0.0838 -0.3826  0.0185
  115MOL   C18436892   3.299   4.161   0.380 -0.2395  0.0995 -0.0901
  115MOL   C18536893   3.255   4.051   0.454 -0.4906 -0.4246  0.1713
  115MOL   C18636894   3.206   3.750   0.522  0.3385  0.2453 -0.3814
  115MOL   H18736895   3.014   3.807   0.440  0.2833 -1.3012  0.9964
  115MOL   H18836896   3.023   3.937   0.234  1.0368 -2.3700  0.4763
  115MOL   H18936897   3.296   4.266   0.193  1.0427  0.6488  2.2900
  115MOL   H19036898   3.378   4.227   0.411  0.9464 -0.1350 -2.4720
  115MOL   H19136899   3.299   4.028   0.550 -1.9921  1.2222  1.2830
  115MOL   H19236900   3.266   3.774   0.610  0.4952 -3.2962  0.5828
  115MOL   H19336901   3.144   3.671   0.564 -1.9631  0.6663 -2.8621
  115MOL   C19436902   3.257   3.682   0.396 -0.0150 -0.7038  0.2410
  115MOL   C19536903   3.387   3.753   0.345  0.0168 -0.2524 -0.3533
  115MOL   C19636904   3.393   3.802   0.211 -0.2192 -0.1562 -0.1581
  115MOL   C19736905   3.501   3.890   0.175 -0.0424 -0.6063  0.0482
  115MOL  Cl19836906   3.518   3.958   0.020 -0.1137 -0.0917  0.3435
  115MOL   C19936907   3.604   3.917   0.265  0.1572 -0.2962 -0.2244
  115MOL   C20036908   3.599   3.860   0.394 -1.1524 -0.3266  0.4418
  115MOL   C20136909   3.494   3.781   0.438  0.1673 -0.2256  0.6736
  115MOL   C20236910   3.284   3.530   0.407  0.6392 -0.1249  0.9357
  115MOL   H20336911   3.175   3.697   0.326 -0.5022  0.7021  1.0786
  115MOL   H20436912   3.317   3.773   0.140  2.0676 -2.0152 -1.9399
  115MOL   H20536913   3.690   3.973   0.231  0.8282 -1.0066  0.2611
  115MOL   H20636914   3.674   3.880   0.470 -0.6193 -0.2815 -0.0879
  115MOL   H20736915   3.477   3.745   0.538 -0.5763 -1.1730  0.2140
  115MOL   H20836916   3.368   3.518   0.338  1.0223  1.0150  1.1941
  115MOL   H20936917   3.330   3.518   0.505  0.6957 -1.6754  0.7341
  115MOL   C21036918   3.173   3.427   0.369 -0.1053  0.5732 -0.3677
  115MOL   C21136919   3.101   3.462   0.240 -0.0424  0.4378 -0.3274
  115MOL   C21236920   2.956   3.458   0.234 -0.2988 -0.4312 -0.1828
  115MOL   C21336921   2.888   3.494   0.115 -0.5230 -0.6614  0.5496
  115MOL  Cl21436922   2.721   3.517   0.117 -0.1147 -0.1441  0.1538
  115MOL   C21536923   2.962   3.522   0.001  0.2940  0.3999  0.7680
  115MOL   C21636924   3.101   3.525   0.002  0.1740  0.1894  0.0920
  115MOL   C21736925   3.172   3.487   0.117  0.1250  0.1677  0.5786
  115MOL   C21836926   3.233   3.279   0.354  0.8151  0.2455 -0.8873
  115MOL   H21936927   3.096   3.424   0.446  1.6856 -0.0524  1.4519
  115MOL   H22036928   2.895   3.438   0.320 -0.9012 -1.8875 -0.9196
  115MOL   H22136929   2.917   3.552   8.343  0.7154  0.0806  0.4605
  115MOL   H22236930   3.151   3.552   8.345  1.5268 -0.2113  0.7029
  115MOL   H22336931   3.279   3.479   0.119  0.1003  0.0788  2.2560
  115MOL   H22436932   3.158   3.224   0.297 -0.1704 -0.8214  1.3728
  115MOL   H22536933   3.316   3.284   0.284  0.1296  0.4103 -1.6865
  115MOL   C22636934   3.282   3.199   0.478 -0.6943  0.2355  0.1604
  115MOL   C22736935   3.202   3.223   0.598  0.2572  0.2570 -1.1205
  115MOL   C22836936   3.252   3.257   0.721 -0.3982 -0.5996  0.3233
  115MOL   C22936937   3.167   3.270   0.835  0.1251  0.0698  0.7471
  115MOL  Cl23036938   3.240   3.298   0.992  0.0507  0.0850 -0.1812
  115MOL   C23136939   3.030   3.235   0.825 -0.3594 -1.0831  0.2807
  115MOL   C23236940   2.972   3.218   0.697  0.0153 -0.0637 -0.2896
  115MOL   C23336941   3.057   3.204   0.586 -0.7645 -0.1282  0.1264
  115MOL   C23436942   3.282   3.046   0.440  0.0718  0.5322 -0.5654
  115MOL   H23536943   3.387   3.221   0.496 -0.2603 -2.6680  1.4913
  115MOL   H23636944   3.356   3.282   0.738 -0.5473  1.4745 -1.5985
  115MOL   H23736945   2.967   3.246   0.912  2.4183 -1.0287  2.3577
  115MOL   H23836946   2.867   3.191   0.692  0.4748 -2.2286  0.9510
  115MOL   H23936947   3.024   3.172   0.488  1.6886 -2.4247 -0.0221
  115MOL   H24036948   3.179   3.013   0.425  0.0292 -0.0081  0.8313
  115MOL   H24136949   3.335   3.040   0.345 -1.5400 -0.7201 -1.4090
  115MOL   C24236950   3.348   2.947   0.537 -0.6008  0.2884  0.0652
  115MOL   C24336951   3.274   2.924   0.665 -0.3136 -0.2684  0.4983
  115MOL   C24436952   3.346   2.930   0.782 -0.3319 -0.3570 -0.3115
  115MOL   C24536953   3.288   2.909   0.912 -0.2676  0.0651  0.4101
  115MOL  Cl24636954   3.376   2.908   1.052 -0.0733 -0.1206  0.2098
  115MOL   C24736955   3.152   2.869   0.916  0.2825  0.1881 -0.4713
  115MOL   C24836956   3.076   2.866   0.798 -0.1251 -0.5008  0.4767
  115MOL   C24936957   3.137   2.889   0.674  0.4723  0.1474  0.0557
  115MOL   C25036958   3.351   2.817   0.454  0.2565  0.3320  0.2547
  115MOL   H25136959   3.453   2.972   0.551  0.4353 -1.5440 -3.6682
  115MOL   H25236960   3.448   2.959   0.765 -0.2443  0.3429  1.2995
  115MOL   H25336961   3.114   2.852   1.016 -0.8961  0.2721 -0.8928
  115MOL   H25436962   2.971   2.839   0.800 -0.2745 -0.1176 -1.1594
  115MOL   H25536963   3.083   2.868   0.583 -0.2197  0.3485  0.4198
  115MOL   H25636964   3.248   2.795   0.424  0.0279  2.4059 -0.5684
  115MOL   H25736965   3.402   2.832   0.359  0.2852  1.7896  0.4856
  115MOL   C25836966   3.403   2.679   0.510 -0.1237 -0.3049  0.7140
  115MOL   C25936967   3.373   2.574   0.403  0.0182 -0.4458  0.5479
  115MOL   C26036968   3.253   2.499   0.406  0.5194 -0.1792  0.1228
  115MOL   C26136969   3.233   2.388   0.328  0.2194  0.5001  0.5106
  115MOL  Cl26236970   3.090   2.288   0.332 -0.2369  0.5023  0.0528
  115MOL   C26336971   3.331   2.349   0.230  0.4604 -0.3262 -0.1264
  115MOL   C26436972   3.444   2.432   0.210  0.5018 -0.4274 -0.4652
  115MOL   C26536973   3.459   2.547   0.295  0.8027  0.1824 -0.2609
  115MOL   C26636974   3.557   2.680   0.551  0.0042 -0.3087 -0.5054
  115MOL   H26736975   3.359   2.650   0.605 -2.2253 -0.8282 -0.3952
  115MOL   H26836976   3.184   2.530   0.483  0.7822  2.8987 -0.8366
  115MOL   H26936977   3.312   2.283   0.147  1.2738  0.9861 -1.3917
  115MOL   H27036978   3.511   2.413   0.128  1.3350  4.0026 -0.9281
  115MOL   H27136979   3.550   2.602   0.275 -0.0115  1.3534 -0.7912
  115MOL   H27236980   3.606   2.728   0.467 -0.8101  0.4902 -0.5292
  115MOL   H27336981   3.569   2.751   0.633 -0.3520 -1.5419  0.6297
  115MOL   C27436982   3.600   2.538   0.596 -0.1520 -0.7099 -0.2433
  115MOL   C27536983   3.744   2.511   0.557  0.4171  0.1469 -0.3812
  115MOL   C27636984   3.836   2.616   0.538 -0.0614 -0.2318 -0.2004
  115MOL   C27736985   3.968   2.594   0.511  0.2689  0.3956 -0.3391
  115MOL  Cl27836986   4.077   2.725   0.500  0.1209 -0.1823 -0.3398
  115MOL   C27936987   4.016   2.463   0.486 -0.4176  0.2396 -0.2549
  115MOL   C28036988   3.918   2.362   0.497 -0.4957  0.5667  0.4693
  115MOL   C28136989   3.783   2.381   0.532 -0.7810 -0.3734 -0.2608
  115MOL   C28236990   3.572   2.528   0.747 -0.0698 -0.4541 -0.6040
  115MOL   H28336991   3.536   2.463   0.549 -1.9099  0.9924 -0.6006
  115MOL   H28436992   3.813   2.719   0.562  0.0098  0.5359 -3.2849
  115MOL   H28536993   4.115   2.448   0.447 -1.0048  2.1255 -2.5564
  115MOL   H28636994   3.943   2.260   0.472 -0.9250  0.3965  0.7316
  115MOL   H28736995   3.727   2.289   0.537 -2.3072  0.5949  0.7243
  115MOL   H28836996   3.652   2.587   0.792  0.5689 -1.5701 -0.2765
  115MOL   H28936997   3.488   2.590   0.778  1.3988  2.0426 -1.4907
  115MOL   C29036998   3.563   2.389   0.815  0.5228  0.2984  0.6816
  115MOL   C29136999   3.574   2.414   0.964 -0.1181 -0.2329 -0.5149
  115MOL   C29237000   3.484   2.494   1.035 -0.5422  0.4564 -0.0934
  115MOL   C29337001   3.497   2.502   1.176  0.1037 -0.2723 -0.0240
  115MOL  Cl29437002   3.386   2.593   1.262 -0.1003  0.0674 -0.2616
  115MOL   C29537003   3.585   2.420   1.248  0.4204 -0.2579 -0.5528
  115MOL   C29637004   3.679   2.340   1.184  0.2764 -0.0840  0.5296
  115MOL   C29737005   3.676   2.338   1.039  1.2217 -0.4584 -0.1362
  115MOL   C29837006   3.431   2.310   0.774  0.4434 -0.4387  0.4624
  115MOL   H29937007   3.646   2.328   0.777  0.2122  0.8313 -0.8765
  115MOL   H30037008   3.415   2.549   0.973  0.7443 -0.1572 -2.1342
  115MOL   H30137009   3.586   2.426   1.356  1.0968  1.5087 -0.6442
  115MOL   H30237010   3.743   2.279   1.245  0.4552 -1.4556 -0.9836
  115MOL   H30337011   3.731   2.265   0.981  0.7079 -0.9214 -0.0496
  115MOL   H30437012   3.345   2.359   0.821  0.5479  0.5554 -0.3497
  115MOL   H30537013   3.409   2.322   0.668  0.5798  0.1997  0.4997
  115MOL   C30637014   3.430   2.159   0.783  0.3282 -0.7070  0.2205
  115MOL   C30737015   3.538   2.081   0.702 -0.3612  0.5836  0.4671
  115MOL   C30837016   3.505   2.034   0.569  0.2138 -0.3142  0.1526
  115MOL   C30937017   3.600   1.960   0.494 -0.1865  0.2560  0.5659
  115MOL  Cl31037018   3.563   1.916   0.332  0.3647  0.1358  0.2004
  115MOL   C31137019   3.735   1.951   0.540 -0.7116  0.1426 -0.2817
  115MOL   C31237020   3.767   1.986   0.672  0.6845 -0.5186 -0.5278
  115MOL   C31337021   3.664   2.054   0.752  0.1707  0.5589 -0.2334
  115MOL   C31437022   3.404   2.117   0.933  0.1816 -0.8600  0.4750
  115MOL   H31537023   3.341   2.123   0.730 -0.1594  1.2458 -0.3198
  115MOL   H31637024   3.409   2.059   0.525  0.0213 -1.8962 -0.3720
  115MOL   H31737025   3.807   1.892   0.484 -1.0847 -1.0836  0.5023
  115MOL   H31837026   3.868   1.976   0.709  1.1356  0.2687 -1.5375
  115MOL   H31937027   3.688   2.093   0.849 -0.4107  0.0036  0.1310
  115MOL   H32037028   3.325   2.184   0.967  0.5301  0.3307 -1.0034
  115MOL   H32137029   3.382   2.013   0.955  0.0043 -0.4249  2.4615
  115MOL   H32237030   3.486   2.146   0.999  0.4636 -0.7391  0.0734
  116MOL     C137031   4.536   6.388   0.535 -0.1064 -0.4149 -0.0271
  116MOL     C237032   4.435   6.311   0.457  0.1599  0.0478 -0.5766
  116MOL     C337033   4.305   6.317   0.494  0.3552 -0.3422  0.0454
  116MOL     C437034   4.203   6.263   0.409 -0.4887  0.4083  0.0188
  116MOL    Cl537035   4.046   6.263   0.458  0.0243  0.1527  0.2619
  116MOL     C637036   4.245   6.222   0.280  0.1438 -0.0937 -0.3918
  116MOL     C737037   4.381   6.213   0.240  0.3458 -0.6765  0.4282
  116MOL     C837038   4.481   6.263   0.331 -0.0091  0.2582 -0.4827
  116MOL     C937039   4.615   6.306   0.632  0.2034 -0.4479 -0.2409
  116MOL    H1037040   4.487   6.470   0.588  0.6219 -1.0773  1.7335
  116MOL    H1137041   4.281   6.378   0.580 -1.3424 -0.0008 -0.6399
  116MOL    H1237042   4.175   6.184   0.206  0.3037 -1.3062  0.0675
  116MOL    H1337043   4.423   6.181   0.146 -1.2843  0.0669 -0.5790
  116MOL    H1437044   4.585   6.258   0.305 -0.2017  0.8598 -1.3683
  116MOL    H1537045   4.706   6.276   0.579 -0.4796 -0.3241 -1.4815
  116MOL    H1637046   4.650   6.375   0.709 -0.2454 -0.4312 -0.0522
  116MOL    H1737047   4.590   6.447   0.462  0.6043 -0.5513  0.3900
  116MOL    C1837048   4.561   6.187   0.715  0.0549 -0.4358  0.2423
  116MOL    C1937049   4.564   6.062   0.627  0.2723 -0.0632 -0.1522
  116MOL    C2037050   4.682   6.029   0.566 -0.4943  0.5154  0.4258
  116MOL    C2137051   4.688   5.941   0.460 -0.0864  0.2632  0.1569
  116MOL   Cl2237052   4.840   5.909   0.375 -0.3364 -0.2326 -0.1842
  116MOL    C2337053   4.573   5.871   0.423  0.1780 -0.2439 -0.0137
  116MOL    C2437054   4.449   5.905   0.485  0.5269  0.1369 -0.0526
  116MOL    C2537055   4.446   6.000   0.589  0.1580 -0.8618 -0.3530
  116MOL    C2637056   4.644   6.157   0.842  0.7069 -0.7239 -0.3836
  116MOL    H2737057   4.463   6.216   0.750  0.3977  0.2306  0.6579
  116MOL    H2837058   4.777   6.073   0.591  0.9231 -1.5654 -1.2428
  116MOL    H2937059   4.581   5.792   0.349 -1.5466 -0.2342 -0.2270
  116MOL    H3037060   4.364   5.844   0.459 -0.1371  1.1071 -0.2152
  116MOL    H3137061   4.348   6.025   0.627 -0.5473 -3.2303 -0.5601
  116MOL    H3237062   4.721   6.086   0.810  0.4544 -0.8942 -0.6141
  116MOL    H3337063   4.693   6.248   0.877  2.2913 -2.2714  1.5759
  116MOL    C3437064   4.565   6.097   0.965 -0.0176 -0.0867 -0.0124
  116MOL    C3537065   4.653   6.031   1.074 -0.2444 -0.2977 -0.4571
  116MOL    C3637066   4.621   5.914   1.140 -0.2137 -0.6859  0.8433
  116MOL    C3737067   4.702   5.860   1.245 -0.0977  0.0732  0.5433
  116MOL   Cl3837068   4.655   5.707   1.312  0.0902 -0.0268  0.0155
  116MOL    C3937069   4.816   5.926   1.279  0.5546 -0.1594  0.1900
  116MOL    C4037070   4.845   6.050   1.222 -0.8005  0.4032  1.3651
  116MOL    C4137071   4.766   6.104   1.119 -0.0739 -0.6301 -0.6676
  116MOL    C4237072   4.477   6.209   1.027 -0.0364  0.1941 -0.0750
  116MOL    H4337073   4.499   6.020   0.925 -1.0707  1.4124 -1.2175
  116MOL    H4437074   4.541   5.852   1.104  0.7452 -0.4279 -1.8629
  116MOL    H4537075   4.873   5.880   1.358 -3.1655 -0.7148  2.6934
  116MOL    H4637076   4.924   6.111   1.263  0.9371 -1.8345  1.4341
  116MOL    H4737077   4.803   6.195   1.075  1.6997 -1.4734 -0.9751
  116MOL    H4837078   4.507   6.239   1.128 -1.6007 -1.7518  1.0103
  116MOL    H4937079   4.485   6.295   0.961 -2.2093  0.5987  0.1479
  116MOL    C5037080   4.325   6.173   1.039 -0.5696  0.4643 -0.2229
  116MOL    C5137081   4.289   6.061   1.141 -0.0426 -0.2064  0.4025
  116MOL    C5237082   4.228   5.938   1.097  0.0143 -0.0380 -0.0663
  116MOL    C5337083   4.235   5.826   1.186  0.5838  0.2249 -0.2947
  116MOL   Cl5437084   4.184   5.664   1.137  0.3988  0.3083 -0.4821
  116MOL    C5537085   4.273   5.845   1.322  0.0557  0.6143 -0.2189
  116MOL    C5637086   4.334   5.964   1.362 -0.5682 -0.1648  0.1088
  116MOL    C5737087   4.343   6.068   1.271  0.2601 -0.2990  0.2836
  116MOL    C5837088   4.239   6.303   1.053  0.2235  0.0592 -0.3578
  116MOL    H5937089   4.288   6.140   0.942 -1.3226 -0.2815  0.3043
  116MOL    H6037090   4.217   5.917   0.991  2.4306 -3.1428  0.2378
  116MOL    H6137091   4.260   5.761   1.390 -2.3942  1.4457  0.4118
  116MOL    H6237092   4.350   5.989   1.465  0.6749 -1.2990  0.2058
  116MOL    H6337093   4.391   6.155   1.313 -0.0193  0.2197 -0.4518
  116MOL    H6437094   4.286   6.366   1.129  0.3111 -0.0441 -0.3262
  116MOL    H6537095   4.254   6.352   0.957  2.2131 -0.7271 -0.4739
  116MOL    C6637096   4.087   6.272   1.082  0.3102 -1.0842  0.1321
  116MOL    C6737097   4.053   6.310   1.227  0.5260  0.1715 -0.2776
  116MOL    C6837098   4.027   6.201   1.316  0.0471  0.3305  0.3390
  116MOL    C6937099   4.011   6.229   1.454  0.7204  0.6114  0.0386
  116MOL   Cl7037100   3.999   6.099   1.571  0.0740  0.0974 -0.1665
  116MOL    C7137101   4.019   6.359   1.504 -0.0288 -0.1561 -0.1424
  116MOL    C7237102   4.050   6.471   1.423 -0.3674 -0.0572 -0.1760
  116MOL    C7337103   4.059   6.444   1.280 -0.7868  0.0737  0.6745
  116MOL    C7437104   3.994   6.360   0.990 -0.0162  0.1905  0.3081
  116MOL    H7537105   4.054   6.171   1.061 -2.2287 -0.5120  1.2683
  116MOL    H7637106   4.045   6.101   1.280 -0.8786 -0.3357  1.6886
  116MOL    H7737107   4.012   6.365   1.612 -0.6556  0.5883 -0.2228
  116MOL    H7837108   4.055   6.567   1.473 -3.4346 -1.0392  2.1448
  116MOL    H7937109   4.085   6.524   1.212 -0.6552 -2.0423 -1.8572
  116MOL    H8037110   3.892   6.343   1.025  0.0262 -1.2772 -0.2485
  116MOL    H8137111   4.008   6.468   0.996 -1.6283  0.4140  0.4417
  116MOL    C8237112   3.993   6.318   0.841 -0.7692 -0.1202  0.4585
  116MOL    C8337113   3.979   6.164   0.831  0.3039 -0.6787  0.8177
  116MOL    C8437114   3.865   6.091   0.875  0.7020 -0.2050 -0.3198
  116MOL    C8537115   3.860   5.955   0.865 -0.6371  0.0522 -0.5233
  116MOL   Cl8637116   3.723   5.874   0.929  0.0864  0.4040 -0.2359
  116MOL    C8737117   3.954   5.884   0.792  0.1472  0.2220  0.1408
  116MOL    C8837118   4.063   5.950   0.735  0.8264  0.0583 -0.1690
  116MOL    C8937119   4.073   6.091   0.754  0.2479 -0.4696 -0.2754
  116MOL    C9037120   3.894   6.391   0.756  0.2122  0.3889 -0.1187
  116MOL    H9137121   4.094   6.342   0.806 -1.6166  0.6522 -1.5330
  116MOL    H9237122   3.794   6.147   0.934 -0.8726 -0.8518 -1.5747
  116MOL    H9337123   3.936   5.777   0.789  0.7678  0.1329 -1.4031
  116MOL    H9437124   4.136   5.898   0.675  0.6527 -0.1169 -0.2296
  116MOL    H9537125   4.148   6.141   0.696 -0.5955  1.2200  0.0754
  116MOL    H9637126   3.907   6.349   0.656 -2.6373  0.2801 -0.4981
  116MOL    H9737127   3.793   6.363   0.784  0.4974 -1.4236 -0.8225
  116MOL    C9837128   3.889   6.538   0.741  0.5656  0.1458  0.0430
  116MOL    C9937129   4.025   6.599   0.689 -0.0909  0.0245  0.3346
  116MOL   C10037130   4.058   6.609   0.551  0.1331 -0.4734 -0.2895
  116MOL   C10137131   4.183   6.671   0.511  0.3846  0.3114 -0.2174
  116MOL  Cl10237132   4.236   6.679   0.346 -0.0046 -0.0456  0.1994
  116MOL   C10337133   4.273   6.720   0.610  0.2941 -0.3723 -0.1338
  116MOL   C10437134   4.240   6.702   0.749 -0.0799 -0.8891  0.4228
  116MOL   C10537135   4.118   6.647   0.787 -0.1457  0.5595 -0.3333
  116MOL   C10637136   3.765   6.589   0.653 -0.2179  0.1828  0.8033
  116MOL   H10737137   3.858   6.573   0.839  0.1972 -2.5809  0.9343
  116MOL   H10837138   3.990   6.568   0.477  0.9795 -1.4415 -0.5483
  116MOL   H10937139   4.365   6.769   0.581 -0.2654 -0.5025 -2.1997
  116MOL   H11037140   4.310   6.743   0.821 -1.1807  1.7896  0.0162
  116MOL   H11137141   4.100   6.647   0.893  1.7623  0.2949  0.0097
  116MOL   H11237142   3.757   6.698   0.659  1.5913  0.3841 -0.1936
  116MOL   H11337143   3.786   6.578   0.546  0.1003 -0.9000  0.9800
  116MOL   C11437144   3.628   6.515   0.665 -0.2240  0.6637 -0.6758
  116MOL   C11537145   3.565   6.520   0.811 -0.2212 -0.4480  0.2992
  116MOL   C11637146   3.593   6.626   0.901 -0.2850  0.3888 -0.2727
  116MOL   C11737147   3.533   6.622   1.031 -0.6450  0.2119 -0.0018
  116MOL  Cl11837148   3.540   6.753   1.141  0.1431 -0.0365  0.1863
  116MOL   C11937149   3.468   6.507   1.074 -0.0927 -0.5653  0.5890
  116MOL   C12037150   3.455   6.392   0.992 -0.3376 -0.1782  0.1715
  116MOL   C12137151   3.499   6.405   0.863 -0.1081  0.1083  0.0454
  116MOL   C12237152   3.534   6.572   0.558 -0.2601  0.2032 -0.2836
  116MOL   H12337153   3.632   6.409   0.641 -1.9335  0.6240 -0.8833
  116MOL   H12437154   3.633   6.721   0.873  0.5996  0.9649  2.7471
  116MOL   H12537155   3.422   6.511   1.172 -1.7733  1.2400 -0.2314
  116MOL   H12637156   3.394   6.309   1.025 -0.0153 -0.7836 -0.7306
  116MOL   H12737157   3.472   6.324   0.798 -1.2029 -1.0039  1.8535
  116MOL   H12837158   3.538   6.681   0.563 -0.0912  0.1138  1.9197
  116MOL   H12937159   3.578   6.564   0.458 -2.5453 -0.4178 -1.2816
  116MOL   C13037160   3.385   6.540   0.559 -0.4385  0.0574  0.6175
  116MOL   C13137161   3.304   6.666   0.517  0.2400  0.3126 -0.5994
  116MOL   C13237162   3.334   6.735   0.404 -0.2994 -0.0533  0.2645
  116MOL   C13337163   3.269   6.851   0.363 -0.4327 -0.3977  0.1131
  116MOL  Cl13437164   3.315   6.947   0.232 -0.4096  0.0685  0.0807
  116MOL   C13537165   3.161   6.896   0.439  0.8148  0.5483 -0.3372
  116MOL   C13637166   3.135   6.832   0.562 -0.3907 -0.1987 -0.5287
  116MOL   C13737167   3.200   6.714   0.598  0.2875  0.3644 -0.0576
  116MOL   C13837168   3.351   6.416   0.470  0.3524 -0.4666  0.4548
  116MOL   H13937169   3.346   6.518   0.658 -1.6975  0.8465  0.3025
  116MOL   H14037170   3.416   6.706   0.340 -0.1891  0.3348  0.2268
  116MOL   H14137171   3.105   6.983   0.408  0.9302  1.6825  2.4681
  116MOL   H14237172   3.062   6.869   0.633 -1.4677 -0.1791 -1.6361
  116MOL   H14337173   3.173   6.665   0.690  0.8096 -3.2304 -1.7448
  116MOL   H14437174   3.243   6.402   0.464  0.2078  0.8937 -0.4708
  116MOL   H14537175   3.391   6.448   0.373  0.4988  2.6350  1.4611
  116MOL   C14637176   3.406   6.276   0.503 -0.7742  0.0523  0.4343
  116MOL   C14737177   3.347   6.199   0.615 -0.6569  0.3524 -0.4165
  116MOL   C14837178   3.208   6.208   0.638  0.2753  0.2151  0.4886
  116MOL   C14937179   3.148   6.136   0.745 -0.4289 -0.4229 -0.4099
  116MOL  Cl15037180   2.982   6.154   0.778  0.6056  0.1112  0.0759
  116MOL   C15137181   3.227   6.042   0.817 -0.2688  0.5568  0.2219
  116MOL   C15237182   3.366   6.022   0.788  0.5677 -0.0268 -0.6530
  116MOL   C15337183   3.428   6.099   0.691 -0.2236 -0.6367  0.8007
  116MOL   C15437184   3.390   6.197   0.367 -0.0358 -0.6170  0.4070
  116MOL   H15537185   3.513   6.285   0.517 -0.6890 -2.0683  1.3589
  116MOL   H15637186   3.142   6.273   0.583  1.1861  0.7318 -0.0183
  116MOL   H15737187   3.183   5.985   0.897  1.0092 -2.3228 -1.0667
  116MOL   H15837188   3.428   5.966   0.857  0.3160  0.0701 -0.3444
  116MOL   H15937189   3.535   6.092   0.677 -0.3299 -2.7715  0.8626
  116MOL   H16037190   3.289   6.209   0.327 -1.0580 -1.5081  2.6413
  116MOL   H16137191   3.456   6.244   0.294 -0.2869 -1.5841 -0.4612
  116MOL   C16237192   3.417   6.044   0.358 -0.3969 -0.1677 -0.1030
  116MOL   C16337193   3.343   5.983   0.234  0.0059 -0.4281 -0.0028
  116MOL   C16437194   3.405   6.007   0.111  0.2462 -0.0484  0.2594
  116MOL   C16537195   3.352   5.949   8.428 -0.2584 -0.2003  0.0160
  116MOL  Cl16637196   3.440   5.987   8.282 -0.0477  0.1662  0.1530
  116MOL   C16737197   3.241   5.868   8.433  0.2455  0.2264 -0.2720
  116MOL   C16837198   3.168   5.854   0.120 -0.3722 -0.3699 -0.1182
  116MOL   C16937199   3.225   5.910   0.239  0.3024  0.1220  0.2341
  116MOL   C17037200   3.569   6.019   0.364  0.1976  0.7810 -0.8729
  116MOL   H17137201   3.365   6.001   0.444 -0.8164 -1.4387 -0.9922
  116MOL   H17237202   3.495   6.067   0.100  0.9978 -0.7109  2.6226
  116MOL   H17337203   3.201   5.826   8.342  0.8326 -0.5859 -0.1644
  116MOL   H17437204   3.074   5.800   0.121 -0.9138  0.5372 -1.3271
  116MOL   H17537205   3.191   5.892   0.340  0.5518  1.9941  0.6724
  116MOL   H17637206   3.616   6.067   0.279  0.3074  1.4670 -0.4308
  116MOL   H17737207   3.599   6.067   0.457 -1.9983 -0.6765  0.6556
  116MOL   C17837208   3.617   5.867   0.351 -0.3244  0.1727  0.3083
  116MOL   C17937209   3.767   5.874   0.320 -0.5664 -0.0057  0.0939
  116MOL   C18037210   3.817   5.795   0.215  0.0429  0.9299 -0.4277
  116MOL   C18137211   3.954   5.800   0.182  0.3078  0.0847  0.7432
  116MOL  Cl18237212   4.025   5.697   0.058 -0.1200 -0.3186  0.1811
  116MOL   C18337213   4.043   5.875   0.259  0.4312 -0.6394  0.1135
  116MOL   C18437214   3.994   5.952   0.370 -0.2598  0.2142  0.7212
  116MOL   C18537215   3.851   5.953   0.402  0.0193 -0.3611 -0.1702
  116MOL   C18637216   3.581   5.789   0.475 -0.2485 -0.3686  0.6810
  116MOL   H18737217   3.567   5.819   0.268 -1.8533  2.9569 -0.4360
  116MOL   H18837218   3.752   5.727   0.162 -0.3622  0.1249  1.0618
  116MOL   H18937219   4.148   5.893   0.241  0.0908  0.4492 -0.8719
  116MOL   H19037220   4.069   6.009   0.422  1.3377 -0.3434 -0.9420
  116MOL   H19137221   3.826   6.016   0.486 -0.1275  1.4504 -1.5359
  116MOL   H19237222   3.599   5.846   0.566  2.7209 -0.9854  0.5165
  116MOL   H19337223   3.473   5.778   0.486 -0.2033 -2.0610 -0.4957
  116MOL   C19437224   3.655   5.655   0.488  0.0625  0.3899  0.0482
  116MOL   C19537225   3.653   5.606   0.636 -0.4047  0.0541  0.3089
  116MOL   C19637226   3.530   5.610   0.712  0.0997  0.1816 -0.0753
  116MOL   C19737227   3.535   5.577   0.848  0.2701  0.0276 -0.0752
  116MOL  Cl19837228   3.396   5.598   0.946  0.0050 -0.0846 -0.2834
  116MOL   C19937229   3.657   5.532   0.911 -0.2176  0.1015 -0.5045
  116MOL   C20037230   3.779   5.533   0.834 -0.4919  0.2802 -0.2944
  116MOL   C20137231   3.776   5.572   0.700  0.4837  0.3503 -0.1453
  116MOL   C20237232   3.600   5.554   0.388  0.1668  0.3673 -0.0911
  116MOL   H20337233   3.761   5.671   0.468 -0.0280  2.8734  1.3187
  116MOL   H20437234   3.430   5.628   0.674  0.2285 -0.7143 -0.8641
  116MOL   H20537235   3.651   5.512   1.017 -2.3656  0.6067 -0.5054
  116MOL   H20637236   3.876   5.521   0.880  0.8111  0.5304 -2.8551
  116MOL   H20737237   3.870   5.577   0.648  0.3912  0.9529 -0.2651
  116MOL   H20837238   3.494   5.545   0.413  0.9054  0.6018  3.3102
  116MOL   H20937239   3.615   5.600   0.290 -0.2136  2.9668  1.0315
  116MOL   C21037240   3.661   5.416   0.373  0.1149 -0.2437 -0.0964
  116MOL   C21137241   3.564   5.326   0.309 -0.0650  1.1313 -0.4328
  116MOL   C21237242   3.483   5.231   0.376  0.1042 -0.8652 -0.6766
  116MOL   C21337243   3.387   5.150   0.310  0.7400  0.2550  0.4487
  116MOL  Cl21437244   3.285   5.046   0.396 -0.3551  0.3996  0.0201
  116MOL   C21537245   3.367   5.173   0.172 -0.8639 -0.6674  0.1927
  116MOL   C21637246   3.434   5.275   0.105 -0.1458 -0.3730  0.9312
  116MOL   C21737247   3.535   5.348   0.172  0.3884 -0.3982 -0.0790
  116MOL   C21837248   3.810   5.406   0.324 -0.0039  0.0861 -0.2287
  116MOL   H21937249   3.670   5.378   0.475 -1.1738  0.5411  0.3183
  116MOL   H22037250   3.490   5.214   0.482  0.5298  3.1018 -0.0027
  116MOL   H22137251   3.291   5.111   0.128 -0.4324  1.8517 -4.3894
  116MOL   H22237252   3.412   5.295   0.001  2.3945  1.8186  0.7499
  116MOL   H22337253   3.589   5.430   0.127 -0.3906  1.2764  1.9751
  116MOL   H22437254   3.816   5.477   0.242 -0.0449 -0.6946 -0.9148
  116MOL   H22537255   3.875   5.436   0.406 -1.4755 -0.3347  1.1056
  116MOL   C22637256   3.859   5.270   0.272 -0.0001  0.1648  0.8690
  116MOL   C22737257   3.997   5.278   0.199 -0.2170 -0.5259 -0.2255
  116MOL   C22837258   4.100   5.362   0.247  0.0054  0.3749  0.1400
  116MOL   C22937259   4.212   5.386   0.172 -0.3793 -0.3031  0.0728
  116MOL  Cl23037260   4.328   5.502   0.239  0.4615 -0.3215 -0.2963
  116MOL   C23137261   4.231   5.322   0.048  0.5100 -0.7389  0.0009
  116MOL   C23237262   4.127   5.238   0.003 -0.1466  0.9329 -0.0267
  116MOL   C23337263   4.009   5.221   0.074 -0.2199 -0.1578  0.8699
  116MOL   C23437264   3.880   5.168   0.392 -1.0582  0.0128  0.1403
  116MOL   H23537265   3.784   5.231   0.203 -0.0811  1.9300 -0.0580
  116MOL   H23637266   4.085   5.427   0.332 -0.8891  0.6950 -0.2545
  116MOL   H23737267   4.313   5.344   8.416 -0.1878 -0.6476 -0.8335
  116MOL   H23837268   4.152   5.184   8.348 -1.3192 -0.6744  0.5994
  116MOL   H23937269   3.937   5.148   0.042  0.1359 -0.3652  0.5529
  116MOL   H24037270   3.970   5.197   0.447  1.2166 -4.1321 -1.1902
  116MOL   H24137271   3.796   5.173   0.461 -0.7734  1.0450  0.4259
  116MOL   C24237272   3.892   5.013   0.372 -0.2036 -0.4638 -0.0980
  116MOL   C24337273   3.923   4.936   0.505 -0.4340 -0.6715 -0.1863
  116MOL   C24437274   4.056   4.881   0.511 -0.6505  0.2028 -0.4986
  116MOL   C24537275   4.094   4.807   0.627  0.2142  0.4054  0.6733
  116MOL  Cl24637276   4.235   4.707   0.624  0.0614  0.0010 -0.3273
  116MOL   C24737277   4.012   4.809   0.740 -0.1016  0.0188 -0.4963
  116MOL   C24837278   3.893   4.886   0.739  0.0615  0.0947  0.6268
  116MOL   C24937279   3.845   4.944   0.617 -0.4302 -0.2520  0.3367
  116MOL   C25037280   3.760   4.948   0.314  0.3214  0.7774 -0.4426
  116MOL   H25137281   3.980   4.993   0.311  0.2662  1.6038 -0.1279
  116MOL   H25237282   4.121   4.880   0.425 -1.4743  1.1881 -1.1384
  116MOL   H25337283   4.042   4.750   0.825 -0.5005  0.1283 -0.2787
  116MOL   H25437284   3.835   4.888   0.831  0.1973  1.9403  0.6792
  116MOL   H25537285   3.748   4.991   0.610 -0.6354 -0.8520 -0.9918
  116MOL   H25637286   3.687   4.958   0.393  1.6176  1.2487  0.7229
  116MOL   H25737287   3.711   5.002   0.233 -1.0263 -1.1995 -0.9671
  116MOL   C25837288   3.759   4.803   0.257  0.0691  0.1208  0.3396
  116MOL   C25937289   3.624   4.740   0.268 -0.2160  0.0542 -0.2667
  116MOL   C26037290   3.511   4.780   0.193 -0.3688 -0.0567  0.3310
  116MOL   C26137291   3.399   4.693   0.193 -0.4324 -0.0798  0.9967
  116MOL  Cl26237292   3.263   4.731   0.090 -0.1803  0.0976 -0.0150
  116MOL   C26337293   3.392   4.576   0.274 -0.4617  0.3402  0.5946
  116MOL   C26437294   3.492   4.556   0.368 -0.2089  0.8345  0.6507
  116MOL   C26537295   3.606   4.639   0.363  0.5325  0.2551 -0.1977
  116MOL   C26637296   3.807   4.798   0.114 -0.1260 -0.5089 -0.2909
  116MOL   H26737297   3.824   4.746   0.324  2.3361  0.5026 -1.4593
  116MOL   H26837298   3.513   4.855   0.116  2.1439 -1.0788 -0.6893
  116MOL   H26937299   3.308   4.509   0.266  1.6030 -2.1307 -2.0993
  116MOL   H27037300   3.492   4.477   0.442  0.4872  0.9977  0.8263
  116MOL   H27137301   3.689   4.612   0.427  1.2363 -1.1257 -1.6723
  116MOL   H27237302   3.728   4.798   0.039 -0.3488 -0.6848 -0.0552
  116MOL   H27337303   3.863   4.887   0.086  1.0175 -1.9737 -2.8622
  116MOL   C27437304   3.916   4.692   0.075  0.2874 -0.0506 -0.3060
  116MOL   C27537305   3.873   4.541   0.098  0.2874  0.0659 -0.1264
  116MOL   C27637306   3.949   4.443   0.162  0.0901 -0.3718  0.4809
  116MOL   C27737307   3.909   4.313   0.178 -0.7834 -0.0947 -0.1634
  116MOL  Cl27837308   4.020   4.207   0.248 -0.2306 -0.0876 -0.2497
  116MOL   C27937309   3.782   4.262   0.133  0.0217  0.3774 -0.3470
  116MOL   C28037310   3.702   4.356   0.071 -0.2480 -0.2310  1.6898
  116MOL   C28137311   3.746   4.493   0.060  0.3775  0.0385 -0.1267
  116MOL   C28237312   3.955   4.704   8.356  0.1640 -0.6987 -0.3738
  116MOL   H28337313   4.002   4.712   0.140 -0.5310  1.2868  0.3864
  116MOL   H28437314   4.048   4.474   0.193  0.4463  0.3777 -1.3392
  116MOL   H28537315   3.752   4.159   0.145  0.7225  0.4957  2.7236
  116MOL   H28637316   3.604   4.328   0.037 -1.3799  3.3906  1.7270
  116MOL   H28737317   3.692   4.566   0.001  0.4659  0.0313 -0.2173
  116MOL   H28837318   4.013   4.620   8.317  2.8824  0.7967  0.3293
  116MOL   H28937319   3.860   4.707   8.302 -0.4873  0.7582  0.8124
  116MOL   C29037320   4.045   4.821   8.319  0.1738 -0.9129 -0.0943
  116MOL   C29137321   4.180   4.814   8.388  0.0071  0.1922  0.5124
  116MOL   C29237322   4.205   4.896   0.066 -0.4364 -0.6044 -0.6423
  116MOL   C29337323   4.337   4.899   0.126  0.0386  0.8456 -0.2315
  116MOL  Cl29437324   4.361   4.995   0.268 -0.1762  0.2093  0.0060
  116MOL   C29537325   4.437   4.811   0.074 -0.3254  0.0023  0.3996
  116MOL   C29637326   4.411   4.735   8.391 -0.6513 -0.0948 -0.1751
  116MOL   C29737327   4.286   4.736   8.336 -0.6871  0.7156 -0.3533
  116MOL   C29837328   4.050   4.841   8.165 -0.4523 -0.2324 -0.1277
  116MOL   H29937329   4.019   4.924   8.346  1.2284 -0.5746 -0.3360
  116MOL   H30037330   4.132   4.963   0.109 -0.8997 -1.5708  0.0900
  116MOL   H30137331   4.535   4.828   0.116 -0.2497  0.7971 -0.0734
  116MOL   H30237332   4.486   4.676   8.341 -1.1514 -0.1299 -0.8819
  116MOL   H30337333   4.272   4.665   8.256 -1.7223  0.6087 -0.0885
  116MOL   H30437334   4.149   4.876   8.136 -1.2935  1.5172 -0.9077
  116MOL   H30537335   4.056   4.742   8.120  2.6017  0.2140 -0.8133
  116MOL   C30637336   3.928   4.931   8.111 -0.1618  0.3782  0.0314
  116MOL   C30737337   3.987   5.051   8.043 -0.1560 -0.5775 -0.4059
  116MOL   C30837338   3.977   5.177   8.105 -0.0913 -0.3694  0.7340
  116MOL   C30937339   4.044   5.289   8.045  0.3364  0.0368  0.4950
  116MOL  Cl31037340   4.018   5.439   8.131  0.1607 -0.1171  0.0248
  116MOL   C31137341   4.114   5.280   7.927 -0.1534 -0.3739 -0.0285
  116MOL   C31237342   4.118   5.159   7.857 -0.5956  0.1215  0.5494
  116MOL   C31337343   4.054   5.043   7.912  0.1402  0.5401 -0.3637
  116MOL   C31437344   3.829   4.850   8.027 -0.0972  0.4027  0.0974
  116MOL   H31537345   3.870   4.966   8.196 -1.4395  0.5472 -0.9013
  116MOL   H31637346   3.927   5.178   8.201 -2.7868 -2.1334 -0.5878
  116MOL   H31737347   4.163   5.368   7.889  1.6551  0.1144  3.3056
  116MOL   H31837348   4.171   5.149   7.763 -4.1419 -3.7004 -1.2141
  116MOL   H31937349   4.057   4.951   7.855 -1.4473  1.5608 -2.1535
  116MOL   H32037350   3.883   4.819   7.937  1.0951  0.4319  0.7964
  116MOL   H32137351   3.797   4.757   8.073 -1.2658 -0.1976 -1.8603
  116MOL   H32237352   3.737   4.900   7.998 -0.4641  1.5551  3.0640
  117MOL     C137353   0.347   3.091   6.059  0.2341  0.3759  0.2844
  117MOL     C237354   0.327   3.016   5.930  0.0122  0.3629 -0.0017
  117MOL     C337355   0.428   3.006   5.838  0.4642  0.5056 -0.7183
  117MOL     C437356   0.411   2.935   5.720  0.2627  0.1201  0.2092
  117MOL    Cl537357   0.547   2.903   5.623  0.2177  0.4941 -0.2987
  117MOL     C637358   0.289   2.872   5.693 -0.4427 -0.6397  0.2294
  117MOL     C737359   0.192   2.872   5.785 -0.0047  0.7314 -0.1841
  117MOL     C837360   0.208   2.942   5.901  0.3452 -0.0583 -0.8210
  117MOL     C937361   0.265   3.221   6.067 -0.1455 -1.0967 -0.7019
  117MOL    H1037362   0.449   3.122   6.080  0.3257 -0.7255  1.5277
  117MOL    H1137363   0.512   3.072   5.848  0.5484  0.2655  0.1878
  117MOL    H1237364   0.282   2.800   5.613 -2.2980 -0.8523  0.5520
  117MOL    H1337365   0.103   2.815   5.765  0.2608 -0.2324  1.3331
  117MOL    H1437366   0.137   2.945   5.983  2.4519  2.4162  1.0174
  117MOL    H1537367   0.237   3.255   5.967 -1.2875 -1.5138 -0.5245
  117MOL    H1637368   0.167   3.208   6.113  0.2122 -1.0304  0.0925
  117MOL    H1737369   0.295   3.032   6.134 -0.2241  1.1022  0.5507
  117MOL    C1837370   0.351   3.336   6.134 -0.1998 -0.6665 -0.1051
  117MOL    C1937371   0.474   3.369   6.055 -0.7815  0.3161  0.7079
  117MOL    C2037372   0.472   3.403   5.911  0.5841  0.0521 -0.4068
  117MOL    C2137373   0.589   3.441   5.845 -0.0654 -0.1187 -0.0877
  117MOL   Cl2237374   0.570   3.471   5.676  0.3514  0.4745  0.3868
  117MOL    C2337375   0.711   3.432   5.911 -0.1436 -0.3290  0.0051
  117MOL    C2437376   0.722   3.408   6.051  0.5377 -0.3730  0.0175
  117MOL    C2537377   0.605   3.376   6.122 -0.1617  0.1303 -0.3379
  117MOL    C2637378   0.266   3.464   6.167 -0.2696  0.1340  0.4100
  117MOL    H2737379   0.387   3.298   6.229 -1.1890  1.0310  0.9913
  117MOL    H2837380   0.381   3.389   5.855  0.6127 -1.4242 -0.0864
  117MOL    H2937381   0.805   3.440   5.858  0.1241 -1.5199  0.2862
  117MOL    H3037382   0.818   3.393   6.098  1.6369 -1.0925 -2.4242
  117MOL    H3137383   0.607   3.339   6.223  1.6269 -1.6005 -0.9718
  117MOL    H3237384   0.189   3.432   6.237 -1.5310 -1.3440 -1.6165
  117MOL    H3337385   0.319   3.537   6.228  1.0446 -0.8104  0.4073
  117MOL    C3437386   0.201   3.549   6.055  0.1541  0.1948  0.3267
  117MOL    C3537387   0.052   3.573   6.079  0.6670 -0.4499 -0.6746
  117MOL    C3637388   8.382   3.512   6.001  0.5523 -0.0970 -0.5371
  117MOL    C3737389   8.246   3.536   6.030 -0.7116  0.5227 -0.1683
  117MOL   Cl3837390   8.119   3.470   5.926 -0.0506  0.3327  0.1779
  117MOL    C3937391   8.204   3.624   6.135 -0.2936 -0.4052  0.5043
  117MOL    C4037392   8.305   3.679   6.221 -0.0557  0.3080  0.0969
  117MOL    C4137393   0.008   3.653   6.189 -0.1295  0.0664 -0.5237
  117MOL    C4237394   0.286   3.677   6.035 -0.2027  0.1267 -0.4805
  117MOL    H4337395   0.200   3.487   5.966 -3.1628  1.3891 -0.5466
  117MOL    H4437396   8.414   3.453   5.916  0.4771 -1.8180  0.6060
  117MOL    H4537397   8.101   3.650   6.152 -0.7636  0.4786 -3.1360
  117MOL    H4637398   8.283   3.737   6.310 -2.4613 -1.7739  0.9295
  117MOL    H4737399   0.082   3.695   6.255 -2.7162  0.0118  2.5064
  117MOL    H4837400   0.262   3.736   6.124  0.7435 -0.0992 -0.0684
  117MOL    H4937401   0.393   3.660   6.044 -0.3703 -0.3733  0.7172
  117MOL    C5037402   0.253   3.770   5.910 -0.1224  0.1944 -0.1496
  117MOL    C5137403   0.303   3.911   5.929 -0.0304  0.0095 -0.6207
  117MOL    C5237404   0.441   3.921   5.929 -0.2635 -0.4556  0.0898
  117MOL    C5337405   0.503   4.046   5.942 -0.2898 -0.3702 -0.7587
  117MOL   Cl5437406   0.673   4.067   5.929  0.4005  0.5853  0.2074
  117MOL    C5537407   0.423   4.156   5.960 -0.1555 -0.2697 -0.1059
  117MOL    C5637408   0.282   4.145   5.945 -0.2926 -0.3271  0.0621
  117MOL    C5737409   0.222   4.023   5.953 -0.0307  0.5024 -0.1853
  117MOL    C5837410   0.282   3.697   5.779  0.1333 -0.2600  0.0794
  117MOL    H5937411   0.144   3.765   5.915 -0.0245 -0.9402  0.9938
  117MOL    H6037412   0.495   3.830   5.909  0.1695 -0.1425 -0.1554
  117MOL    H6137413   0.460   4.257   5.961  1.8040 -0.9672  0.1038
  117MOL    H6237414   0.217   4.230   5.929 -0.6560 -0.1344  2.4317
  117MOL    H6337415   0.116   4.006   5.936 -0.5488  2.4743  0.9346
  117MOL    H6437416   0.390   3.682   5.771  0.3796  1.9169 -1.3816
  117MOL    H6537417   0.230   3.601   5.777 -1.2099  0.4564 -1.3257
  117MOL    C6637418   0.241   3.768   5.640 -0.6804  0.2837 -0.7838
  117MOL    C6737419   0.337   3.864   5.577  0.3563 -0.0695  0.1160
  117MOL    C6837420   0.458   3.819   5.528 -0.3831 -0.4704  0.1443
  117MOL    C6937421   0.551   3.905   5.469  0.2637 -0.2477 -0.3150
  117MOL   Cl7037422   0.708   3.854   5.407 -0.0670  0.3844  0.2958
  117MOL    C7137423   0.523   4.036   5.452 -0.4056  0.5088  0.0918
  117MOL    C7237424   0.399   4.087   5.489 -0.7826  0.3273  0.6899
  117MOL    C7337425   0.304   4.001   5.550  0.0219 -0.2109 -0.2575
  117MOL    C7437426   0.192   3.654   5.541  0.0352  1.0950 -0.3762
  117MOL    H7537427   0.150   3.821   5.669 -0.2902  1.5266 -1.7808
  117MOL    H7637428   0.493   3.719   5.550 -1.6682 -0.8599  0.5013
  117MOL    H7737429   0.601   4.104   5.421  1.3313 -1.5864 -0.2633
  117MOL    H7837430   0.366   4.187   5.466 -1.4618 -0.5198 -2.2594
  117MOL    H7937431   0.207   4.038   5.580  0.2965 -0.7772  1.4065
  117MOL    H8037432   0.242   3.677   5.448  0.2549  0.2096 -0.4788
  117MOL    H8137433   0.222   3.552   5.563 -0.0523  1.4315  1.4190
  117MOL    C8237434   0.042   3.661   5.507 -0.0862 -0.3181 -0.0279
  117MOL    C8337435   0.004   3.568   5.393 -0.0597  0.2098  1.1021
  117MOL    C8437436   8.373   3.621   5.280  0.1153 -0.0539  0.2165
  117MOL    C8537437   8.350   3.534   5.169  0.2614 -0.7153 -0.1938
  117MOL   Cl8637438   8.288   3.598   5.018  0.3182  0.0179  0.0725
  117MOL    C8737439   8.373   3.392   5.176 -0.0084  0.3774  0.6266
  117MOL    C8837440   8.418   3.338   5.295  0.4907  0.1308  0.2409
  117MOL    C8937441   0.029   3.428   5.396  0.2473 -0.5175 -0.3647
  117MOL    C9037442   8.394   3.633   5.635 -0.4485  0.6906 -0.3825
  117MOL    H9137443   0.025   3.764   5.475 -0.9024 -0.4653 -0.0584
  117MOL    H9237444   8.353   3.727   5.268  0.2336 -0.1629 -0.9926
  117MOL    H9337445   8.360   3.333   5.086  3.0256 -1.6231  1.4204
  117MOL    H9437446   0.016   3.235   5.300  2.5406  0.7740  0.1385
  117MOL    H9537447   0.074   3.382   5.483  0.8878 -0.2427 -0.5471
  117MOL    H9637448   8.368   3.528   5.635 -2.7670  1.2157 -2.6645
  117MOL    H9737449   0.012   3.633   5.730 -3.6290 -1.1587  1.4669
  117MOL    C9837450   8.266   3.715   5.653  0.0634  1.6700  1.1262
  117MOL    C9937451   8.296   3.859   5.690 -0.2352  0.3715  0.2705
  117MOL   C10037452   8.276   3.888   5.825 -0.4627  0.8869 -0.3271
  117MOL   C10137453   8.298   4.014   5.875  0.3828 -0.5895 -0.2582
  117MOL  Cl10237454   8.269   4.045   6.041 -0.3720  0.0696  0.2951
  117MOL   C10337455   8.335   4.119   5.791  0.8232 -0.2158  0.3858
  117MOL   C10437456   8.349   4.095   5.657 -0.6677  0.1310 -0.2836
  117MOL   C10537457   8.331   3.965   5.599  0.3035  0.7698  0.0875
  117MOL   C10637458   8.155   3.696   5.543  0.3554  0.5743  0.4513
  117MOL   H10737459   8.220   3.666   5.739 -1.3672 -0.8258 -1.0204
  117MOL   H10837460   8.236   3.813   5.891  2.6414 -1.2691 -0.7927
  117MOL   H10937461   8.353   4.220   5.822 -0.2326 -0.2912  1.2766
  117MOL   H11037462   8.368   4.178   5.590 -1.4130 -0.2272 -0.9411
  117MOL   H11137463   8.349   3.945   5.494  0.3974 -0.3225  0.3054
  117MOL   H11237464   8.171   3.769   5.464  0.4083  0.6326  0.5168
  117MOL   H11337465   8.182   3.600   5.498  1.4490  0.5022  1.2248
  117MOL   C11437466   8.014   3.683   5.596 -0.0581 -0.4947 -0.1428
  117MOL   C11537467   7.972   3.788   5.695 -0.2904  0.3233 -0.1052
  117MOL   C11637468   7.990   3.923   5.666  0.4147  0.3468  0.3433
  117MOL   C11737469   7.964   4.018   5.766 -0.1748  0.4187 -0.5162
  117MOL  Cl11837470   7.971   4.189   5.741  0.0460  0.1503 -0.0519
  117MOL   C11937471   7.914   3.984   5.892  0.3732  0.0370  0.2134
  117MOL   C12037472   7.888   3.849   5.922  0.0120  0.3052 -0.2601
  117MOL   C12137473   7.917   3.753   5.818 -0.9995 -0.3196 -0.1681
  117MOL   C12237474   7.902   3.669   5.491 -0.3743  0.4744  0.0718
  117MOL   H12337475   7.999   3.596   5.661 -0.4602  0.4243  1.0174
  117MOL   H12437476   8.041   3.955   5.576  0.6733 -0.4200  0.2149
  117MOL   H12537477   7.904   4.062   5.967 -2.5646  0.2081 -0.3013
  117MOL   H12637478   7.844   3.834   6.019 -0.3205  0.6838 -0.3530
  117MOL   H12737479   7.897   3.649   5.841 -0.2088  0.2811  3.5069
  117MOL   H12837480   7.800   3.667   5.529 -1.0045  1.1679 -1.5628
  117MOL   H12937481   7.908   3.761   5.434  1.2435  1.4666  1.7973
  117MOL   C13037482   7.919   3.546   5.404  0.2794 -0.0428  0.4949
  117MOL   C13137483   7.956   3.425   5.483  0.0154 -0.4026  0.1245
  117MOL   C13237484   7.867   3.389   5.591 -0.9059  0.3749 -0.1964
  117MOL   C13337485   7.908   3.282   5.676  0.5980 -0.0345 -0.5877
  117MOL  Cl13437486   7.803   3.225   5.791 -0.0670 -0.3402 -0.0373
  117MOL   C13537487   8.028   3.215   5.649  0.3071 -0.1262 -0.4756
  117MOL   C13637488   8.112   3.250   5.545 -0.6816 -0.5216 -0.2395
  117MOL   C13737489   8.073   3.349   5.456 -0.4923  0.2877  0.1954
  117MOL   C13837490   7.784   3.523   5.326 -0.2450 -0.0732 -0.4813
  117MOL   H13937491   8.000   3.577   5.338  1.4326 -0.7313  1.5654
  117MOL   H14037492   7.779   3.445   5.617  0.8335  3.0986  0.0451
  117MOL   H14137493   8.062   3.129   5.706  0.2672  1.0734  1.4151
  117MOL   H14237494   8.213   3.213   5.531 -0.2810  0.4201  0.1545
  117MOL   H14337495   8.134   3.372   5.371  0.4179  1.4663  1.1504
  117MOL   H14437496   7.703   3.497   5.394 -0.8322  1.2696 -0.6387
  117MOL   H14537497   7.765   3.625   5.292  0.4830  0.3859  0.4513
  117MOL   C14637498   7.800   3.441   5.194 -0.0235 -0.0189 -0.7427
  117MOL   C14737499   7.862   3.305   5.208  0.2514  0.8223  0.1875
  117MOL   C14837500   7.792   3.208   5.283 -0.2859  0.1717 -0.2105
  117MOL   C14937501   7.845   3.086   5.303  0.2648 -0.1522 -0.6416
  117MOL  Cl15037502   7.772   2.972   5.406 -0.0813  0.5368  0.0811
  117MOL   C15137503   7.971   3.053   5.245 -0.3189 -0.1631  0.1176
  117MOL   C15237504   8.042   3.143   5.169  0.3387  0.0545 -0.3584
  117MOL   C15337505   7.991   3.273   5.149 -0.0643 -0.0925  0.5112
  117MOL   C15437506   7.661   3.424   5.119 -0.3460  0.3379  0.3471
  117MOL   H15537507   7.870   3.494   5.129  1.0452 -1.8341 -1.1074
  117MOL   H15637508   7.701   3.227   5.337 -0.3034 -0.2411 -0.0934
  117MOL   H15737509   8.012   2.954   5.259  1.3750  0.7832  2.0034
  117MOL   H15837510   8.141   3.118   5.133  1.2451  1.6775  0.9235
  117MOL   H15937511   8.052   3.336   5.087 -2.9219  1.1935 -1.1280
  117MOL   H16037512   7.675   3.364   5.029  1.7532  0.4897  0.5512
  117MOL   H16137513   7.605   3.363   5.191 -0.4436 -0.6604 -0.5551
  117MOL   C16237514   7.584   3.545   5.077  0.6116 -0.3979 -0.4634
  117MOL   C16337515   7.662   3.632   4.982  0.7480  0.4109 -0.5942
  117MOL   C16437516   7.675   3.597   4.846  0.0756 -0.1826 -0.6485
  117MOL   C16537517   7.741   3.690   4.760 -0.1042  0.1009 -0.1765
  117MOL  Cl16637518   7.727   3.684   4.588  0.0092 -0.0477 -0.0111
  117MOL   C16737519   7.809   3.802   4.816  0.2541  0.4844 -0.3063
  117MOL   C16837520   7.785   3.841   4.949 -0.5852 -0.2895  0.7309
  117MOL   C16937521   7.730   3.744   5.037 -0.3843 -0.2542 -0.1837
  117MOL   C17037522   7.446   3.498   5.016  0.0826 -0.8205  0.1809
  117MOL   H17137523   7.560   3.593   5.172  1.0935  0.9108 -0.9971
  117MOL   H17237524   7.621   3.509   4.815 -0.9552 -0.1162  0.9055
  117MOL   H17337525   7.853   3.870   4.745 -1.7786  0.6401 -1.4464
  117MOL   H17437526   7.829   3.933   4.986 -2.0855  0.3351  1.0301
  117MOL   H17537527   7.718   3.768   5.142 -0.0057 -0.2080 -0.1487
  117MOL   H17637528   7.461   3.438   4.927 -1.1633 -0.3431 -0.3658
  117MOL   H17737529   7.399   3.424   5.081  1.0982 -0.7057  1.0742
  117MOL   C17837530   7.346   3.613   4.999  0.6105 -0.1260  0.1896
  117MOL   C17937531   7.340   3.708   5.117  0.9886 -0.8606 -0.1143
  117MOL   C18037532   7.390   3.840   5.115  0.0187 -0.0233  0.2262
  117MOL   C18137533   7.394   3.922   5.228  0.4426 -0.7414  0.7793
  117MOL  Cl18237534   7.467   4.078   5.210 -0.0872 -0.0689 -0.3800
  117MOL   C18337535   7.340   3.880   5.350 -1.0728  0.8207  0.6232
  117MOL   C18437536   7.287   3.749   5.348  0.6194 -0.6664  0.2123
  117MOL   C18537537   7.287   3.663   5.239  0.0253  0.3666  0.1238
  117MOL   C18637538   7.351   3.681   4.860  0.0454 -0.1580  0.1401
  117MOL   H18737539   7.252   3.559   5.005 -0.6959  1.8384 -1.8652
  117MOL   H18837540   7.431   3.878   5.022 -0.8104  0.4494  0.0501
  117MOL   H18937541   7.327   3.941   5.438 -2.3470  1.6633 -0.1421
  117MOL   H19037542   7.249   3.707   5.440  0.8867 -0.9226  0.2069
  117MOL   H19137543   7.244   3.565   5.248  2.1928 -0.6637 -0.5104
  117MOL   H19237544   7.446   3.733   4.841 -0.4313  1.1619  1.2820
  117MOL   H19337545   7.357   3.599   4.789  0.0271  1.3696 -1.6775
  117MOL   C19437546   7.226   3.771   4.815 -0.4501 -0.4084  0.4092
  117MOL   C19537547   7.240   3.815   4.671 -0.2730 -0.0994  0.1242
  117MOL   C19637548   7.229   3.956   4.644  0.1126 -0.1174 -0.9807
  117MOL   C19737549   7.234   4.000   4.514  0.6915  0.5894 -0.1292
  117MOL  Cl19837550   7.187   4.160   4.482  0.3528  0.3612  0.1737
  117MOL   C19937551   7.243   3.907   4.412 -0.1705 -0.3345  0.0965
  117MOL   C20037552   7.247   3.764   4.440 -0.1358 -0.2854 -0.4117
  117MOL   C20137553   7.248   3.722   4.568 -0.1051 -0.0834  0.0782
  117MOL   C20237554   7.091   3.713   4.847  0.6246  0.1564  0.5929
  117MOL   H20337555   7.232   3.860   4.878  0.2229  1.3678 -2.0820
  117MOL   H20437556   7.213   4.031   4.721  2.8519  0.1372 -0.5870
  117MOL   H20537557   7.246   3.943   4.310 -0.1059 -3.4961 -1.0759
  117MOL   H20637558   7.238   3.687   4.364  0.2989 -1.9627  1.2101
  117MOL   H20737559   7.243   3.618   4.596  1.7490 -0.0503  0.5785
  117MOL   H20837560   7.084   3.608   4.817  0.0427  0.6699 -1.1231
  117MOL   H20937561   7.074   3.704   4.955 -0.5712 -0.6566  0.3440
  117MOL   C21037562   6.967   3.780   4.781  0.0723  0.2478  0.2692
  117MOL   C21137563   6.842   3.693   4.775 -0.6249  0.1143 -0.3647
  117MOL   C21237564   6.781   3.661   4.650  0.0066 -0.0820 -0.6985
  117MOL   C21337565   6.653   3.605   4.643  0.7128 -0.5332 -0.2367
  117MOL  Cl21437566   6.565   3.587   4.495  0.2907 -0.1158  0.1323
  117MOL   C21537567   6.582   3.594   4.763 -0.0754  1.0292  0.6317
  117MOL   C21637568   6.642   3.619   4.888  0.0885  0.0354 -0.0521
  117MOL   C21737569   6.776   3.659   4.892  0.5009  0.2696  0.1652
  117MOL   C21837570   6.925   3.916   4.836  0.1959 -0.2544  0.4223
  117MOL   H21937571   6.986   3.793   4.674 -1.6223 -0.2107 -0.1075
  117MOL   H22037572   6.826   3.689   4.556  1.1906 -0.1867 -0.1675
  117MOL   H22137573   6.475   3.580   4.767 -0.2977  2.4709  0.1708
  117MOL   H22237574   6.591   3.626   4.983 -1.4347  2.1215 -0.9751
  117MOL   H22337575   6.816   3.684   4.989 -0.7763  3.1713 -0.0071
  117MOL   H22437576   6.891   3.903   4.939 -2.1866  2.0747 -0.0431
  117MOL   H22537577   7.015   3.978   4.842 -0.6701  0.8889  2.1762
  117MOL   C22637578   6.808   3.990   4.761 -0.0550 -0.5161 -0.7159
  117MOL   C22737579   6.730   4.101   4.839 -0.0138 -0.2495 -0.4308
  117MOL   C22837580   6.607   4.061   4.893  0.3454 -0.3642 -0.5974
  117MOL   C22937581   6.537   4.153   4.981 -0.0582 -0.3885 -0.2717
  117MOL  Cl23037582   6.386   4.116   5.057 -0.0867 -0.0294  0.0278
  117MOL   C23137583   6.605   4.276   5.015  1.0408  0.0111 -0.1375
  117MOL   C23237584   6.727   4.312   4.965 -0.4821 -0.3652 -0.0228
  117MOL   C23337585   6.796   4.216   4.884  0.2880  0.0834  0.8008
  117MOL   C23437586   6.853   4.042   4.627 -0.1974 -0.1418  0.5130
  117MOL   H23537587   6.745   3.908   4.730  1.9954 -2.8080  1.0066
  117MOL   H23637588   6.551   3.974   4.861 -0.1024 -0.8943  1.5633
  117MOL   H23737589   6.549   4.358   5.058 -0.3247 -0.3539 -1.1713
  117MOL   H23837590   6.763   4.409   4.994 -0.2898  0.3126 -2.4613
  117MOL   H23937591   6.899   4.238   4.861 -0.4167  2.4176 -0.2021
  117MOL   H24037592   6.920   4.125   4.652  0.5287  0.1124 -2.0356
  117MOL   H24137593   6.910   3.963   4.577 -1.3464 -0.6090 -0.0810
  117MOL   C24237594   6.739   4.089   4.537  0.2959  0.1659  0.3583
  117MOL   C24337595   6.797   4.153   4.406  0.4492 -0.1920  0.6663
  117MOL   C24437596   6.867   4.068   4.316  0.0976 -0.0716  0.3655
  117MOL   C24537597   6.930   4.120   4.200 -0.2560  0.5949 -0.1005
  117MOL  Cl24637598   7.007   4.007   4.097  0.0411  0.0042  0.2030
  117MOL   C24737599   6.929   4.260   4.175  0.1838  0.3438 -0.3184
  117MOL   C24837600   6.876   4.347   4.274 -0.1454 -0.3474 -0.6846
  117MOL   C24937601   6.813   4.295   4.386 -1.0414 -0.5875 -0.1554
  117MOL   C25037602   6.624   3.990   4.503 -0.4443 -0.6216 -0.4006
  117MOL   H25137603   6.693   4.169   4.595 -0.8828 -0.7554  0.7199
  117MOL   H25237604   6.883   3.961   4.324  0.8978  0.1601  2.3326
  117MOL   H25337605   6.969   4.304   4.085  0.3470 -1.6261 -1.2340
  117MOL   H25437606   6.877   4.454   4.259  4.2348  0.6419  4.6165
  117MOL   H25537607   6.771   4.359   4.462 -1.2403 -0.6719 -0.1937
  117MOL   H25637608   6.667   3.917   4.435  0.0470  1.4847 -2.4036
  117MOL   H25737609   6.592   3.935   4.592 -1.9290  0.5554 -0.1756
  117MOL   C25837610   6.492   4.051   4.440  0.4668  0.2163 -0.0462
  117MOL   C25937611   6.400   4.100   4.548 -0.0119 -0.2631 -0.4146
  117MOL   C26037612   6.425   4.237   4.584 -0.3295  0.6206  0.5554
  117MOL   C26137613   6.343   4.287   4.691 -0.4163 -0.0268 -0.0195
  117MOL  Cl26237614   6.384   4.442   4.753  0.2082  0.2374 -0.0927
  117MOL   C26337615   6.242   4.210   4.749 -0.3093  0.4577 -0.5697
  117MOL   C26437616   6.223   4.078   4.701  0.6852 -0.0084 -0.4829
  117MOL   C26537617   6.299   4.023   4.601 -0.5642  0.5732 -0.6268
  117MOL   C26637618   6.489   4.142   4.320 -0.1842 -0.3402 -0.1881
  117MOL   H26737619   6.441   3.958   4.411 -0.6810  0.9689 -0.4718
  117MOL   H26837620   6.501   4.300   4.540  1.0709 -1.5396 -0.2192
  117MOL   H26937621   6.178   4.249   4.827  1.0179  1.0814  0.2253
  117MOL   H27037622   6.151   4.014   4.750  0.1212  0.0602 -1.2268
  117MOL   H27137623   6.282   3.922   4.568 -2.1238  0.8412 -0.6524
  117MOL   H27237624   6.387   4.174   4.300 -0.6325 -2.4289 -1.4436
  117MOL   H27337625   6.545   4.232   4.347  1.7621 -1.1825 -1.2799
  117MOL   C27437626   6.542   4.095   4.189 -0.3227  0.0772  0.5378
  117MOL   C27537627   6.508   3.946   4.149 -0.2583 -0.7057 -0.2768
  117MOL   C27637628   6.378   3.912   4.118 -0.2615 -0.1591  0.3876
  117MOL   C27737629   6.351   3.780   4.074 -0.0051  0.2900 -0.2904
  117MOL  Cl27837630   6.184   3.748   4.036  0.1403  0.3032 -0.0808
  117MOL   C27937631   6.457   3.687   4.048  0.8062 -0.7617  0.4086
  117MOL   C28037632   6.588   3.728   4.079 -0.1886  0.8561  0.5161
  117MOL   C28137633   6.613   3.860   4.139 -0.2330 -0.5448  0.0896
  117MOL   C28237634   6.503   4.197   4.082 -0.2242  0.5100 -0.9205
  117MOL   H28337635   6.650   4.089   4.187 -0.4634 -2.6536 -1.4316
  117MOL   H28437636   6.296   3.983   4.118 -1.5143 -1.5630  1.9385
  117MOL   H28537637   6.437   3.589   4.007 -2.0124  0.0485 -0.2865
  117MOL   H28637638   6.665   3.654   4.060 -0.6161  0.7736 -0.9732
  117MOL   H28737639   6.716   3.876   4.165  0.3550 -1.2977 -1.7112
  117MOL   H28837640   6.396   4.188   4.063 -0.3652  0.7495 -0.2756
  117MOL   H28937641   6.511   4.297   4.126  0.4681 -0.8019  2.1078
  117MOL   C29037642   6.596   4.205   3.959  0.3108 -0.4960 -0.7360
  117MOL   C29137643   6.597   4.077   3.870 -0.1899 -0.4100 -0.2074
  117MOL   C29237644   6.477   4.016   3.828  0.3145 -0.0840  0.1686
  117MOL   C29337645   6.474   3.917   3.737  0.2699 -0.6415  1.0109
  117MOL  Cl29437646   6.327   3.876   3.665 -0.3773 -0.6146 -0.4610
  117MOL   C29537647   6.598   3.854   3.706 -0.0838  0.0481  0.3825
  117MOL   C29637648   6.716   3.895   3.760 -0.0138 -0.5911 -0.9492
  117MOL   C29737649   6.720   4.012   3.843 -0.4443 -0.2888 -0.2787
  117MOL   C29837650   6.537   4.325   3.879  0.6526 -0.4203 -0.0620
  117MOL   H29937651   6.694   4.226   4.004 -1.0894  0.4818  2.0036
  117MOL   H30037652   6.379   4.054   3.851  1.3182  2.2136  0.8291
  117MOL   H30137653   6.601   3.775   3.633 -0.1037  0.0494  0.3798
  117MOL   H30237654   6.811   3.873   3.712  0.3276 -0.3184 -0.4027
  117MOL   H30337655   6.814   4.052   3.875 -1.8220  1.9927  1.0302
  117MOL   H30437656   6.431   4.308   3.862  0.5054 -1.6853  2.0039
  117MOL   H30537657   6.537   4.414   3.942  0.1503  0.4427 -1.2705
  117MOL   C30637658   6.599   4.361   3.741  0.2650  0.1441  0.1802
  117MOL   C30737659   6.523   4.484   3.693 -0.5395 -0.1454 -0.6193
  117MOL   C30837660   6.552   4.609   3.751  0.3324 -0.9115  0.2297
  117MOL   C30937661   6.492   4.730   3.704  0.4403 -0.0303 -0.1100
  117MOL  Cl31037662   6.544   4.877   3.778 -0.2306  0.1494 -0.1711
  117MOL   C31137663   6.395   4.725   3.601  0.1543  0.5398  0.3569
  117MOL   C31237664   6.357   4.601   3.552  0.4515 -0.9615  0.5118
  117MOL   C31337665   6.411   4.478   3.601 -0.1888 -0.9153  0.2033
  117MOL   C31437666   6.752   4.386   3.747 -0.6625 -0.1588 -0.0089
  117MOL   H31537667   6.578   4.280   3.670 -2.2688 -1.1684  2.3349
  117MOL   H31637668   6.628   4.613   3.827  1.5807 -0.1256 -1.0231
  117MOL   H31737669   6.349   4.811   3.556 -0.1328 -0.2961 -0.9871
  117MOL   H31837670   6.290   4.606   3.468 -1.3824 -0.4765  1.9668
  117MOL   H31937671   6.381   4.389   3.547 -0.3322  0.4669 -2.1041
  117MOL   H32037672   6.798   4.428   3.658  1.3588 -0.7379  0.7124
  117MOL   H32137673   6.778   4.459   3.825 -0.9449  0.0350 -0.0969
  117MOL   H32237674   6.822   4.304   3.766  1.0414  1.4175  0.7380
  118MOL     C137675   3.831   6.171   7.004 -0.0750  0.7107 -0.6027
  118MOL     C237676   3.931   6.278   7.041 -0.3215  0.6121 -0.3205
  118MOL     C337677   3.898   6.379   7.137 -0.2753  0.1759 -0.5847
  118MOL     C437678   3.995   6.471   7.178 -0.1443  0.9607 -0.5965
  118MOL    Cl537679   3.955   6.599   7.288 -0.2009 -0.2280  0.1081
  118MOL     C637680   4.122   6.470   7.128  0.2875  0.0923  0.2666
  118MOL     C737681   4.163   6.365   7.045  0.4433  0.1475  0.5293
  118MOL     C837682   4.067   6.270   7.007  0.1886  0.1373  0.3099
  118MOL     C937683   3.692   6.224   6.965  0.4718  0.2130  0.1154
  118MOL    H1037684   3.826   6.107   7.092 -0.1647 -0.1717 -1.2406
  118MOL    H1137685   3.800   6.394   7.182 -0.0085  0.3162 -0.0448
  118MOL    H1237686   4.189   6.549   7.159  1.7983 -0.3785 -1.7040
  118MOL    H1337687   4.265   6.372   7.010  0.0039 -2.6480 -1.4982
  118MOL    H1437688   4.097   6.201   6.929  0.8513 -0.8328  1.4077
  118MOL    H1537689   3.687   6.329   6.991 -0.9139 -0.3490  2.2696
  118MOL    H1637690   3.675   6.221   6.857  0.1369 -0.9888  0.1854
  118MOL    H1737691   3.863   6.106   6.922 -0.4751 -1.0964  0.6550
  118MOL    C1837692   3.569   6.155   7.025  0.1612 -0.3675  0.3360
  118MOL    C1937693   3.551   6.196   7.169  0.3830  0.2939  0.6023
  118MOL    C2037694   3.577   6.109   7.280  0.2308  0.0783  0.0870
  118MOL    C2137695   3.575   6.158   7.411 -0.1224  0.6640 -0.5133
  118MOL   Cl2237696   3.601   6.051   7.547 -0.2389 -0.2475 -0.0578
  118MOL    C2337697   3.570   6.294   7.436  0.4283 -0.1937 -0.3645
  118MOL    C2437698   3.534   6.382   7.330 -0.7949 -0.2795 -0.3505
  118MOL    C2537699   3.517   6.326   7.199  0.2201  0.4126 -0.2439
  118MOL    C2637700   3.436   6.184   6.949 -0.2698 -0.3300  0.1467
  118MOL    H2737701   3.595   6.050   7.019  1.2772 -0.1349  0.9964
  118MOL    H2837702   3.612   6.009   7.263  4.1803  1.4613 -0.5615
  118MOL    H2937703   3.574   6.323   7.540 -0.0674 -3.1511  0.5234
  118MOL    H3037704   3.515   6.486   7.354  0.2356 -0.6879  2.4819
  118MOL    H3137705   3.485   6.387   7.116  2.9067  0.3206 -1.3822
  118MOL    H3237706   3.417   6.291   6.943 -0.6656 -0.3058  1.6018
  118MOL    H3337707   3.454   6.170   6.842  0.4532  2.4477 -0.1269
  118MOL    C3437708   3.302   6.108   6.985  0.2281 -0.2530  0.7943
  118MOL    C3537709   3.261   6.131   7.137 -0.4377 -0.8174  0.5250
  118MOL    C3637710   3.264   6.022   7.224  0.0850 -0.0893  0.2474
  118MOL    C3737711   3.237   6.042   7.361 -0.8484 -0.2433 -0.1794
  118MOL   Cl3837712   3.234   5.906   7.456  0.1862 -0.1942 -0.5899
  118MOL    C3937713   3.201   6.168   7.410  0.6608  0.3567 -0.0756
  118MOL    C4037714   3.191   6.275   7.318 -0.3395 -0.3439 -0.4214
  118MOL    C4137715   3.216   6.259   7.181  0.1038  0.9374 -0.3611
  118MOL    C4237716   3.182   6.151   6.886 -0.3275 -0.5158 -0.0313
  118MOL    H4337717   3.305   6.001   6.966 -0.3858 -0.0010 -0.8100
  118MOL    H4437718   3.305   5.928   7.191 -0.7608 -0.1161 -0.7806
  118MOL    H4537719   3.173   6.179   7.513  0.5557 -1.1481  0.0696
  118MOL    H4637720   3.165   6.376   7.343  1.2307  0.5544 -2.2440
  118MOL    H4737721   3.223   6.342   7.112 -1.2421  0.5235 -1.0247
  118MOL    H4837722   3.088   6.114   6.927 -0.9519 -0.2353 -1.1849
  118MOL    H4937723   3.180   6.259   6.874  0.6199 -0.3477  1.2779
  118MOL    C5037724   3.185   6.099   6.742 -0.5927 -0.3813  0.5327
  118MOL    C5137725   3.218   5.951   6.727 -0.2427  0.1480 -0.0279
  118MOL    C5237726   3.131   5.856   6.788 -0.2297 -0.7150 -0.2841
  118MOL    C5337727   3.144   5.719   6.761 -0.6543 -0.9442  0.1893
  118MOL   Cl5437728   3.045   5.595   6.833  0.3977  0.0372  0.0875
  118MOL    C5537729   3.259   5.681   6.691 -0.4874 -0.1745 -0.4634
  118MOL    C5637730   3.351   5.773   6.632 -0.3395  0.8103 -0.4773
  118MOL    C5737731   3.332   5.911   6.647  0.2696  0.5874 -1.0378
  118MOL    C5837732   3.065   6.123   6.644  0.6502  0.1300  0.2013
  118MOL    H5937733   3.268   6.153   6.696 -0.1008 -0.3719  1.4334
  118MOL    H6037734   3.059   5.894   6.858  0.0474  0.1378 -0.4556
  118MOL    H6137735   3.274   5.574   6.699 -1.9079 -0.3305  0.1904
  118MOL    H6237736   3.440   5.734   6.585 -0.3401 -0.4363  0.5430
  118MOL    H6337737   3.405   5.983   6.612  2.1781 -1.4971 -1.4351
  118MOL    H6437738   3.092   6.080   6.547  0.9258  0.6325  0.0503
  118MOL    H6537739   2.988   6.057   6.684  0.6034  0.7606  1.1631
  118MOL    C6637740   3.007   6.260   6.624 -0.0391 -1.4008  0.1516
  118MOL    C6737741   3.102   6.360   6.567  0.4130 -0.2715  0.3659
  118MOL    C6837742   3.173   6.323   6.452 -0.5604  0.1081 -0.0036
  118MOL    C6937743   3.271   6.414   6.409  0.2083 -0.7722  0.1864
  118MOL   Cl7037744   3.368   6.373   6.280 -0.1886  0.2360  0.5060
  118MOL    C7137745   3.275   6.551   6.449 -0.0154  0.0466  0.0146
  118MOL    C7237746   3.173   6.589   6.546  0.5543 -0.2023  0.5273
  118MOL    C7337747   3.089   6.493   6.609  0.7767 -0.4813  1.1605
  118MOL    C7437748   2.871   6.252   6.558 -0.5157 -1.0632 -0.3992
  118MOL    H7537749   2.987   6.306   6.720 -0.1009  0.3572 -0.6893
  118MOL    H7637750   3.160   6.228   6.402 -2.3934  0.9713 -1.2101
  118MOL    H7737751   3.338   6.620   6.395  0.9618 -0.3966  0.5796
  118MOL    H7837752   3.165   6.692   6.577 -1.0148 -0.2908  0.4860
  118MOL    H7937753   3.018   6.525   6.684 -0.9062  0.8790 -0.9415
  118MOL    H8037754   2.885   6.252   6.450  1.2154  1.1602 -0.2070
  118MOL    H8137755   2.824   6.153   6.554 -0.5943 -0.9774 -2.0227
  118MOL    C8237756   2.756   6.350   6.596 -0.5765 -0.5084  0.0571
  118MOL    C8337757   2.712   6.431   6.477  0.2097  0.4566 -0.1307
  118MOL    C8437758   2.653   6.362   6.363  0.0043 -0.1386  0.6132
  118MOL    C8537759   2.592   6.439   6.262 -0.2049  0.3546 -0.5425
  118MOL   Cl8637760   2.508   6.359   6.130  0.0962 -0.1439  0.0405
  118MOL    C8737761   2.598   6.575   6.264  0.3907 -0.3863  0.6332
  118MOL    C8837762   2.658   6.639   6.374 -0.0099  0.3943 -0.1941
  118MOL    C8937763   2.721   6.569   6.476  0.1856 -0.3641 -0.8476
  118MOL    C9037764   2.636   6.290   6.675  0.8637  0.8450  0.5467
  118MOL    H9137765   2.807   6.408   6.673 -0.7569  1.1153 -1.0353
  118MOL    H9237766   2.640   6.255   6.363 -3.3748  0.2323  0.6186
  118MOL    H9337767   2.550   6.623   6.179  1.0143 -1.5355 -0.3866
  118MOL    H9437768   2.661   6.747   6.380 -4.1163  0.6987 -1.5033
  118MOL    H9537769   2.772   6.622   6.555  2.2324 -0.9984 -1.7043
  118MOL    H9637770   2.565   6.372   6.685 -0.8235 -0.8287  2.6780
  118MOL    H9737771   2.593   6.211   6.614  0.8714  0.9961  0.3442
  118MOL    C9837772   2.670   6.231   6.808  0.0653 -0.8678  0.4302
  118MOL    C9937773   2.707   6.336   6.905 -1.1018 -0.2237 -0.6624
  118MOL   C10037774   2.614   6.439   6.947 -0.7531 -0.0003  0.1744
  118MOL   C10137775   2.653   6.532   7.045  0.0447  0.2136 -0.0071
  118MOL  Cl10237776   2.540   6.645   7.116 -0.0437  0.1551 -0.2103
  118MOL   C10337777   2.787   6.536   7.094 -0.0434  0.5126 -0.0399
  118MOL   C10437778   2.874   6.428   7.063  0.0765 -0.1719  0.3035
  118MOL   C10537779   2.831   6.334   6.969  0.6286  0.5670 -0.3731
  118MOL   C10637780   2.550   6.155   6.866  0.4686  0.1058  0.1213
  118MOL   H10737781   2.753   6.161   6.796  1.6516  1.3048 -1.9550
  118MOL   H10837782   2.517   6.451   6.901  0.2454 -0.9550 -2.2782
  118MOL   H10937783   2.806   6.616   7.164 -2.6923  1.4067 -0.2702
  118MOL   H11037784   2.970   6.419   7.111  0.7167 -1.4483 -1.1601
  118MOL   H11137785   2.883   6.240   6.952 -0.7604 -0.4809  1.0654
  118MOL   H11237786   2.582   6.107   6.959  0.3919 -2.5966 -1.1936
  118MOL   H11337787   2.474   6.228   6.893  0.1511 -0.3006  0.3259
  118MOL   C11437788   2.472   6.047   6.775  0.5592 -0.4674 -0.2275
  118MOL   C11537789   2.560   5.941   6.709 -0.5067 -0.9012 -0.0644
  118MOL   C11637790   2.538   5.909   6.576  0.1030 -0.0772  0.2504
  118MOL   C11737791   2.613   5.805   6.514 -0.0616 -0.6534 -0.3434
  118MOL  Cl11837792   2.592   5.751   6.352  0.1263 -0.1163  0.1338
  118MOL   C11937793   2.715   5.745   6.593  0.2155  0.0185  0.1468
  118MOL   C12037794   2.737   5.772   6.727 -0.1185 -0.5926  0.3526
  118MOL   C12137795   2.657   5.868   6.788  0.0328 -0.1856 -0.8173
  118MOL   C12237796   2.352   5.982   6.856 -0.0326  0.1950  0.0455
  118MOL   H12337797   2.418   6.099   6.696 -1.4130  1.0357  2.0406
  118MOL   H12437798   2.464   5.964   6.520  0.3689 -0.0799 -0.1114
  118MOL   H12537799   2.773   5.665   6.549 -0.5281 -1.3576  1.6097
  118MOL   H12637800   2.815   5.728   6.786 -0.7999  0.5477  2.1516
  118MOL   H12737801   2.671   5.891   6.892  0.0949 -2.9767 -0.1846
  118MOL   H12837802   2.312   5.903   6.792  3.6171 -0.6131 -1.3138
  118MOL   H12937803   2.406   5.926   6.932 -1.4877  0.0220  0.9764
  118MOL   C13037804   2.251   6.077   6.925  0.2584 -0.1757  0.4248
  118MOL   C13137805   2.199   6.182   6.826  0.3319 -0.6572 -0.0636
  118MOL   C13237806   2.169   6.152   6.689  0.6590  0.6774 -0.4045
  118MOL   C13337807   2.116   6.245   6.605 -0.1367 -1.0288  0.2458
  118MOL  Cl13437808   2.084   6.212   6.440 -0.0833  0.0635  0.0355
  118MOL   C13537809   2.086   6.373   6.651  0.0750  0.1237 -0.5878
  118MOL   C13637810   2.120   6.403   6.784  0.2209 -0.5384  0.6410
  118MOL   C13737811   2.178   6.309   6.873 -0.6186 -0.2159 -0.5466
  118MOL   C13837812   2.149   6.002   7.007  0.4679  0.0233  0.4580
  118MOL   H13937813   2.301   6.132   7.005  0.4898 -1.1256  0.9428
  118MOL   H14037814   2.190   6.056   6.645 -0.9748  0.1963 -0.1990
  118MOL   H14137815   2.035   6.445   6.589 -1.1853  0.8935  1.2742
  118MOL   H14237816   2.096   6.500   6.826  0.1939 -0.2034 -0.1423
  118MOL   H14337817   2.197   6.333   6.976 -0.9487  0.5748 -0.6653
  118MOL   H14437818   2.194   5.943   7.087  1.8276 -0.0817 -0.3871
  118MOL   H14537819   2.093   6.082   7.057 -1.7815 -2.0511  1.3834
  118MOL   C14637820   2.040   5.923   6.940 -0.2234 -0.4080 -0.4536
  118MOL   C14737821   2.086   5.780   6.908 -0.0679 -0.1502 -0.5853
  118MOL   C14837822   2.099   5.693   7.016 -0.3180 -0.3845 -0.1078
  118MOL   C14937823   2.152   5.565   6.998 -0.1566 -0.3808  0.1185
  118MOL  Cl15037824   2.177   5.471   7.136 -0.0463 -0.4283  0.1020
  118MOL   C15137825   2.184   5.514   6.873  0.2908  0.1331  1.0711
  118MOL   C15237826   2.171   5.600   6.763  0.1388 -0.2552  0.4380
  118MOL   C15337827   2.120   5.736   6.777  0.3515 -0.0804 -0.2792
  118MOL   C15437828   1.900   5.943   6.997 -0.4228  0.0574 -0.0321
  118MOL   H15537829   2.021   5.970   6.843 -3.0172  1.9998  1.1644
  118MOL   H15637830   2.079   5.720   7.118 -2.0373  0.8999 -0.7696
  118MOL   H15737831   2.217   5.412   6.859  2.5500  0.9696  0.1922
  118MOL   H15837832   2.207   5.568   6.666 -0.1115  1.0266 -0.0787
  118MOL   H15937833   2.098   5.795   6.689 -0.1824 -0.7024 -0.5613
  118MOL   H16037834   1.891   5.904   7.099  0.0101  0.5755  0.2060
  118MOL   H16137835   1.881   6.051   6.998  0.5875  0.2451 -1.3918
  118MOL   C16237836   1.790   5.872   6.913 -0.2442  0.2848  0.0970
  118MOL   C16337837   1.768   5.726   6.946 -0.6214  0.0194  0.3938
  118MOL   C16437838   1.737   5.694   7.077 -0.5610  0.5614 -0.1751
  118MOL   C16537839   1.704   5.559   7.106  0.2915  1.2931  0.6814
  118MOL  Cl16637840   1.631   5.523   7.260  0.0847  0.2890  0.1448
  118MOL   C16737841   1.709   5.459   7.009 -0.5508 -0.8395  0.1131
  118MOL   C16837842   1.750   5.496   6.884 -0.2938 -0.0798 -0.2389
  118MOL   C16937843   1.783   5.628   6.846  0.1881  0.8731 -0.3521
  118MOL   C17037844   1.653   5.943   6.911 -0.3033  0.0078  0.0918
  118MOL   H17137845   1.822   5.886   6.810 -0.6865  2.2301  0.2103
  118MOL   H17237846   1.737   5.768   7.155 -1.5731 -0.2971  0.6587
  118MOL   H17337847   1.684   5.357   7.034 -2.9046 -0.3835 -0.2369
  118MOL   H17437848   1.769   5.420   6.809  0.0182 -0.3074  0.0706
  118MOL   H17537849   1.813   5.652   6.746  1.5490  0.3834 -0.0641
  118MOL   H17637850   1.631   5.960   7.017  2.1172  1.7842  0.3548
  118MOL   H17737851   1.684   6.044   6.882  0.3647  0.5361  2.4899
  118MOL   C17837852   1.539   5.880   6.820 -0.5218  0.2272 -0.5913
  118MOL   C17937853   1.447   5.773   6.883 -0.2002 -0.2617  0.4033
  118MOL   C18037854   1.452   5.641   6.842 -0.9931  0.1179  0.1546
  118MOL   C18137855   1.357   5.545   6.886  0.1706  0.6689  0.3015
  118MOL  Cl18237856   1.343   5.388   6.814  0.3333  0.2173 -0.0604
  118MOL   C18337857   1.266   5.580   6.992  0.6170 -0.9843  0.8247
  118MOL   C18437858   1.269   5.718   7.041 -0.1742  0.3539 -0.1833
  118MOL   C18537859   1.366   5.811   6.992 -0.1056 -0.4748 -0.1088
  118MOL   C18637860   1.457   5.994   6.754  0.5450  1.0801  0.5525
  118MOL   H18737861   1.590   5.837   6.734  0.9428 -1.5341  1.1100
  118MOL   H18837862   1.513   5.616   6.756 -1.0908  1.7940 -0.4241
  118MOL   H18937863   1.184   5.512   7.011 -0.2303 -0.2271 -0.0462
  118MOL   H19037864   1.200   5.753   7.116  2.0340  0.1546  2.0148
  118MOL   H19137865   1.375   5.911   7.030  1.3449  0.2307 -2.2033
  118MOL   H19237866   1.355   5.967   6.726  1.2897 -0.1090 -1.1212
  118MOL   H19337867   1.442   6.073   6.828  1.5929  1.1935  0.6444
  118MOL   C19437868   1.531   6.063   6.640 -0.0351 -0.2108 -0.0165
  118MOL   C19537869   1.548   5.973   6.521 -0.4855  0.1741 -0.2982
  118MOL   C19637870   1.680   5.960   6.459  0.3638 -0.2396 -0.8097
  118MOL   C19737871   1.696   5.877   6.344 -0.6026  0.2874  0.1019
  118MOL  Cl19837872   1.853   5.865   6.283 -0.4616  0.1000 -0.1680
  118MOL   C19937873   1.590   5.805   6.286 -0.1356 -0.2352 -0.3679
  118MOL   C20037874   1.464   5.820   6.343  0.0909 -0.1975 -0.5845
  118MOL   C20137875   1.441   5.896   6.463  0.2703  0.4978 -0.3434
  118MOL   C20237876   1.469   6.200   6.605 -0.6148 -1.0071  0.4013
  118MOL   H20337877   1.633   6.087   6.671  0.4235  0.6934 -2.1056
  118MOL   H20437878   1.759   6.012   6.510 -0.2183 -1.2334  1.1593
  118MOL   H20537879   1.594   5.747   6.195 -0.8968 -1.0584  0.1087
  118MOL   H20637880   1.378   5.764   6.310 -0.2938  0.2368 -0.3204
  118MOL   H20737881   1.349   5.893   6.519  1.3899 -0.6581  1.4613
  118MOL   H20837882   1.362   6.196   6.586 -0.3538  2.6568 -2.4015
  118MOL   H20937883   1.479   6.263   6.694  1.8745  0.7544 -1.0562
  118MOL   C21037884   1.550   6.280   6.492 -0.2008 -0.0344 -0.0347
  118MOL   C21137885   1.517   6.232   6.354  0.8196 -0.1950  0.2651
  118MOL   C21237886   1.624   6.202   6.270 -0.6180 -0.3455  0.2091
  118MOL   C21337887   1.599   6.164   6.142  0.2011 -0.0493  0.1803
  118MOL  Cl21437888   1.733   6.152   6.035 -0.4677 -0.0326 -0.2399
  118MOL   C21537889   1.470   6.138   6.096 -0.0456  0.4832 -0.0888
  118MOL   C21637890   1.358   6.153   6.178 -0.3839 -0.2055  1.2464
  118MOL   C21737891   1.386   6.198   6.307  0.0363  0.1682 -0.2570
  118MOL   C21837892   1.529   6.432   6.498 -0.4769 -0.4619 -0.3070
  118MOL   H21937893   1.653   6.262   6.525 -0.6982 -0.4793  1.3390
  118MOL   H22037894   1.728   6.216   6.298 -0.5754  0.3624 -0.2956
  118MOL   H22137895   1.450   6.112   5.993 -0.7607  2.0232 -0.3481
  118MOL   H22237896   1.258   6.143   6.139 -1.2448  2.3930  2.7023
  118MOL   H22337897   1.297   6.210   6.366 -0.1539  0.6546 -0.6330
  118MOL   H22437898   1.422   6.450   6.481 -0.2481  0.5024 -0.7757
  118MOL   H22537899   1.541   6.471   6.599 -1.2017 -2.0229  0.3887
  118MOL   C22637900   1.607   6.518   6.401  0.3286  0.7377 -0.3019
  118MOL   C22737901   1.559   6.660   6.401 -0.7855  0.4860  0.1225
  118MOL   C22837902   1.559   6.732   6.527 -0.1619 -0.5152  0.7540
  118MOL   C22937903   1.515   6.867   6.529 -0.0300 -0.5950 -0.2828
  118MOL  Cl23037904   1.526   6.937   6.684 -0.2051 -0.3630 -0.0044
  118MOL   C23137905   1.486   6.937   6.411  0.1211  0.2241  0.1751
  118MOL   C23237906   1.489   6.864   6.286 -0.1750  0.4289 -0.1242
  118MOL   C23337907   1.522   6.730   6.281 -0.4316  0.7509 -0.1338
  118MOL   C23437908   1.765   6.511   6.397 -0.1911  0.5938 -0.4443
  118MOL   H23537909   1.577   6.483   6.302 -0.5468  1.4390 -0.2893
  118MOL   H23637910   1.588   6.693   6.623  0.4101  0.1121  0.8339
  118MOL   H23737911   1.464   7.043   6.411  1.7204  0.5833  0.5220
  118MOL   H23837912   1.467   6.914   6.193 -0.5743  2.7539  1.1956
  118MOL   H23937913   1.514   6.669   6.191 -1.5528  0.1572  0.3590
  118MOL   H24037914   1.801   6.539   6.495 -0.7243  0.3538 -0.1794
  118MOL   H24137915   1.805   6.410   6.386 -0.0360  0.5896  0.1831
  118MOL   C24237916   1.839   6.595   6.287 -0.4632 -0.1828 -0.0220
  118MOL   C24337917   1.989   6.620   6.318  1.0303  0.7568 -0.6424
  118MOL   C24437918   2.034   6.755   6.335  0.1645 -0.3273  0.0291
  118MOL   C24537919   2.169   6.784   6.330  0.3151  1.1359  0.5624
  118MOL  Cl24637920   2.227   6.946   6.359 -0.4120  0.2319 -0.0920
  118MOL   C24737921   2.262   6.678   6.324 -0.7481  0.6677  0.0474
  118MOL   C24837922   2.225   6.549   6.312 -0.7690  0.3463 -0.2542
  118MOL   C24937923   2.094   6.519   6.308 -0.5430 -0.1351 -0.8490
  118MOL   C25037924   1.814   6.541   6.145 -0.6367 -0.5315 -0.5198
  118MOL   H25137925   1.798   6.696   6.292 -2.5850 -1.0117  0.0316
  118MOL   H25237926   1.959   6.832   6.345  1.1769  0.5804  0.8065
  118MOL   H25337927   2.367   6.701   6.328  0.1445 -2.9544 -1.0435
  118MOL   H25437928   2.298   6.470   6.318 -1.0600 -0.0008 -1.2766
  118MOL   H25537929   2.073   6.414   6.293  0.0568 -0.5588  1.1258
  118MOL   H25637930   1.828   6.433   6.152  2.5197 -0.2054 -0.9005
  118MOL   H25737931   1.708   6.546   6.123 -0.7566 -3.4938 -0.9072
  118MOL   C25837932   1.899   6.582   6.024 -0.9011  0.1721 -0.6311
  118MOL   C25937933   1.880   6.492   5.899 -0.2671  0.2153  0.2735
  118MOL   C26037934   1.749   6.474   5.847  0.3109 -0.5421  0.1161
  118MOL   C26137935   1.729   6.384   5.736 -0.1822 -0.3785 -0.2046
  118MOL  Cl26237936   1.576   6.359   5.663 -0.0952 -0.3620 -0.0187
  118MOL   C26337937   1.838   6.317   5.685  0.4101 -0.1269 -0.7658
  118MOL   C26437938   1.969   6.335   5.741 -0.5460 -0.0880  0.0748
  118MOL   C26537939   1.988   6.418   5.847  0.4497 -0.0019 -0.8625
  118MOL   C26637940   1.863   6.729   5.983  0.0770 -0.7721 -0.4969
  118MOL   H26737941   2.005   6.588   6.048 -0.8242 -2.4061 -0.2731
  118MOL   H26837942   1.667   6.526   5.894  2.2064  0.8450  2.0273
  118MOL   H26937943   1.818   6.248   5.604 -0.4615 -0.0461 -0.6172
  118MOL   H27037944   2.050   6.276   5.700 -1.5937 -2.1284  0.8693
  118MOL   H27137945   2.084   6.427   5.896  0.7985  0.9728 -1.7041
  118MOL   H27237946   1.758   6.737   5.952 -0.0765 -1.6623 -0.2124
  118MOL   H27337947   1.861   6.789   6.074 -0.1570  1.4320 -1.9145
  118MOL   C27437948   1.950   6.795   5.867 -0.3791  0.0313 -0.2904
  118MOL   C27537949   1.875   6.892   5.778  0.0920 -0.6167  0.4550
  118MOL   C27637950   1.869   6.847   5.640  0.5485 -0.1247  0.4173
  118MOL   C27737951   1.799   6.930   5.548  0.5470  0.6433 -0.4672
  118MOL  Cl27837952   1.783   6.889   5.381 -0.3363  0.0674  0.2326
  118MOL   C27937953   1.729   7.041   5.595  0.6083 -0.4789  0.2680
  118MOL   C28037954   1.720   7.075   5.730  0.2545 -0.6719 -0.4700
  118MOL   C28137955   1.801   7.005   5.825  0.2615  0.5477  0.2568
  118MOL   C28237956   2.077   6.858   5.932 -0.0355  0.5611  0.7005
  118MOL   H28337957   1.978   6.719   5.794 -0.1079  0.1437 -0.3053
  118MOL   H28437958   1.918   6.756   5.610  1.2040 -0.0440  1.2285
  118MOL   H28537959   1.671   7.099   5.524 -0.6004  1.1136  2.4571
  118MOL   H28637960   1.661   7.159   5.761 -0.2021 -0.9614 -0.5562
  118MOL   H28737961   1.801   7.030   5.930 -0.4691 -1.0129  0.6515
  118MOL   H28837962   2.034   6.928   6.004  0.4768  1.3967  0.1951
  118MOL   H28937963   2.135   6.783   5.986 -2.5619 -4.6458 -3.3361
  118MOL   C29037964   2.164   6.947   5.851  0.4976  0.0356 -0.8172
  118MOL   C29137965   2.271   7.009   5.947  0.3055  0.3172 -0.4481
  118MOL   C29237966   2.398   6.953   5.968  1.0743  0.4342  0.7134
  118MOL   C29337967   2.492   7.014   6.052  0.5357 -0.1384 -0.7878
  118MOL  Cl29437968   2.644   6.953   6.083 -0.0435  0.2225 -0.2096
  118MOL   C29537969   2.462   7.131   6.126 -0.7462 -0.5269 -0.0210
  118MOL   C29637970   2.333   7.189   6.107 -0.0006 -0.5905  0.2946
  118MOL   C29737971   2.238   7.131   6.015 -0.6806 -0.2916  0.1635
  118MOL   C29837972   2.236   6.886   5.728  0.1003 -0.7726  0.2733
  118MOL   H29937973   2.104   7.032   5.818 -0.9198 -0.1301  1.2097
  118MOL   H30037974   2.436   6.859   5.930  2.1986  0.2820  2.1707
  118MOL   H30137975   2.536   7.180   6.188 -3.1610  2.0048  0.9950
  118MOL   H30237976   2.306   7.277   6.163 -0.1788 -1.0596  0.9461
  118MOL   H30337977   2.137   7.167   6.006 -0.1052  0.6742 -3.0536
  118MOL   H30437978   2.305   6.805   5.752 -0.7186 -1.9669 -1.3834
  118MOL   H30537979   2.158   6.830   5.677  1.1164 -2.5250  0.6076
  118MOL   C30637980   2.298   6.987   5.629  0.5919 -1.0010  0.5867
  118MOL   C30737981   2.409   6.926   5.547  0.0206  0.9265  0.2110
  118MOL   C30837982   2.375   6.855   5.430  0.0661  0.0070 -0.0485
  118MOL   C30937983   2.473   6.784   5.360 -0.2304 -0.2087 -0.4039
  118MOL  Cl31037984   2.432   6.707   5.209 -0.0282  0.2377  0.2772
  118MOL   C31137985   2.606   6.799   5.396  0.1270  0.5454 -0.3056
  118MOL   C31237986   2.645   6.883   5.506 -0.1152  0.4415  0.2134
  118MOL   C31337987   2.542   6.945   5.582 -0.1940 -0.0334  0.5891
  118MOL   C31437988   2.194   7.061   5.546 -0.6552 -0.5577 -0.6826
  118MOL   H31537989   2.336   7.061   5.699  0.8954 -1.8262  1.2954
  118MOL   H31637990   2.270   6.845   5.407  0.3021  0.0488 -1.1425
  118MOL   H31737991   2.682   6.744   5.341  0.4086 -0.0260  0.6468
  118MOL   H31837992   2.749   6.881   5.533 -1.1268 -0.5505  4.2973
  118MOL   H31937993   2.570   7.005   5.668 -1.1379  0.9292  0.2424
  118MOL   H32037994   2.237   7.137   5.480  0.6440  1.7801  2.7368
  118MOL   H32137995   2.127   6.997   5.490  0.2271 -0.9542 -1.2988
  118MOL   H32237996   2.119   7.107   5.610  0.5115  1.4217 -0.6742
  119MOL     C137997   4.506   8.133   1.270  0.3032  0.4444  0.6052
  119MOL     C237998   4.494   8.220   1.390  0.4678 -0.1246  0.3527
  119MOL     C337999   4.373   8.220   1.464  0.2470 -0.2766  0.5089
  119MOL     C438000   4.368   8.295   1.579 -0.1699 -0.0575  0.6263
  119MOL    Cl538001   4.225   8.287   1.673  0.2901  0.1179 -0.3201
  119MOL     C638002   4.470   8.377   1.622  0.1196  0.1078 -0.3954
  119MOL     C738003   4.587   8.383   1.545  0.5070 -0.2301 -0.2844
  119MOL     C838004   4.595   8.310   1.423  0.1862  0.7172 -0.4221
  119MOL     C938005   4.424   8.173   1.146  0.1246 -0.6028  0.6383
  119MOL    H1038006   4.481   8.029   1.291 -1.8800  0.4886 -1.5145
  119MOL    H1138007   4.295   8.153   1.432  0.1506  0.4500 -0.8160
  119MOL    H1238008   4.465   0.001   1.713  2.8942 -0.6516  0.3239
  119MOL    H1338009   4.664   0.018   1.573 -0.9549  0.4138  2.2811
  119MOL    H1438010   4.684   8.314   1.362 -0.4995  2.1006 -1.3706
  119MOL    H1538011   4.319   8.160   1.175 -0.3158  1.3373 -0.0464
  119MOL    H1638012   4.429   8.278   1.118 -1.9632  0.0947  2.6648
  119MOL    H1738013   4.608   8.134   1.231 -0.3920  0.0553 -1.2893
  119MOL    C1838014   4.456   8.082   1.025  0.5284 -0.0609 -0.3197
  119MOL    C1938015   4.337   8.085   0.930 -0.3670 -0.3933  1.0082
  119MOL    C2038016   4.306   8.191   0.842 -0.1342  0.7798 -0.1669
  119MOL    C2138017   4.199   8.181   0.752  0.0157  0.3219  0.3086
  119MOL   Cl2238018   4.167   8.313   0.643  0.0161  0.5691  0.1659
  119MOL    C2338019   4.122   8.064   0.743  0.5336 -1.0072  0.4017
  119MOL    C2438020   4.144   7.957   0.827  0.0391  0.0855 -0.6899
  119MOL    C2538021   4.260   7.970   0.915  0.0245 -0.2754 -0.1246
  119MOL    C2638022   4.589   8.106   0.952 -0.4679 -0.1816 -0.8865
  119MOL    H2738023   4.465   7.978   1.058  0.8808 -0.6635 -2.2338
  119MOL    H2838024   4.359   8.285   0.845  0.4281  0.4540  0.3468
  119MOL    H2938025   4.049   8.052   0.664  0.0120  0.6916  0.6167
  119MOL    H3038026   4.090   7.865   0.812  1.7278 -1.0799  0.2155
  119MOL    H3138027   4.291   7.884   0.972 -1.7645 -1.0247 -0.2696
  119MOL    H3238028   4.581   8.166   0.861 -2.4930 -1.8393 -1.8680
  119MOL    H3338029   4.641   8.163   1.029 -1.8914 -0.2936  0.1778
  119MOL    C3438030   4.658   7.979   0.907  0.2179 -0.4148 -0.0621
  119MOL    C3538031   4.564   7.905   0.813  0.2944  0.3955 -0.2285
  119MOL    C3638032   4.503   7.965   0.700 -0.2040  0.1167  0.4148
  119MOL    C3738033   4.427   7.887   0.613  0.3351  1.0288  0.1680
  119MOL   Cl3838034   4.350   7.955   0.477  0.0418  0.2446  0.0844
  119MOL    C3938035   4.401   7.751   0.638  0.0382 -0.3323 -0.1444
  119MOL    C4038036   4.457   7.689   0.752  0.2409  0.3180 -0.8186
  119MOL    C4138037   4.530   7.766   0.842 -0.2044 -0.5054  0.7568
  119MOL    C4238038   4.794   8.002   0.847  0.6254 -0.3097 -0.0344
  119MOL    H4338039   4.673   7.918   0.996 -0.3193 -1.2576 -0.5452
  119MOL    H4438040   4.528   8.068   0.676 -0.1702  0.0803  0.2964
  119MOL    H4538041   4.337   7.700   0.568  2.0123  0.3960 -2.5692
  119MOL    H4638042   4.433   7.586   0.774 -1.7783  0.3705 -2.6279
  119MOL    H4738043   4.575   7.719   0.928 -0.1867 -1.8000  0.0431
  119MOL    H4838044   4.840   7.913   0.805  1.3583 -0.4752  1.1111
  119MOL    H4938045   4.782   8.063   0.757 -0.1117  0.3138  0.4793
  119MOL    C5038046   4.897   8.067   0.938  0.1788 -0.1905  0.3713
  119MOL    C5138047   4.932   7.990   1.068 -0.6028 -0.7555  0.1203
  119MOL    C5238048   4.922   8.060   1.190  0.4514 -0.3199  0.0756
  119MOL    C5338049   4.937   7.987   1.317 -0.2331  0.1816 -0.0234
  119MOL   Cl5438050   4.898   8.062   1.467 -0.0574  0.1315 -0.3503
  119MOL    C5538051   4.973   7.847   1.315 -0.1340 -0.0818 -0.1465
  119MOL    C5638052   4.993   7.783   1.190  0.0297  0.2100  0.1091
  119MOL    C5738053   4.971   7.853   1.067 -0.1406  0.1436  0.1160
  119MOL    C5838054   5.029   8.079   0.855 -0.4264  0.0608 -0.5344
  119MOL    H5938055   4.865   8.168   0.965 -2.9023 -0.9043 -0.4958
  119MOL    H6038056   4.885   8.161   1.198  1.3862  0.1698 -1.7397
  119MOL    H6138057   4.982   7.786   1.403 -2.7154  0.6629  0.6702
  119MOL    H6238058   5.022   7.679   1.183 -2.4295 -0.4469 -1.1036
  119MOL    H6338059   4.974   7.788   0.981 -2.5419  0.9090 -0.5897
  119MOL    H6438060   5.071   7.980   0.839 -2.5056 -0.7473 -1.1655
  119MOL    H6538061   5.013   8.116   0.754 -2.4397  1.2852  0.2045
  119MOL    C6638062   5.134   8.181   0.908 -1.3561  0.1007  0.6659
  119MOL    C6738063   5.266   8.166   0.835  0.2057  0.4901  0.0414
  119MOL    C6838064   5.379   8.225   0.892  0.0622 -1.1740  0.4301
  119MOL    C6938065   5.509   8.215   0.831 -0.8092 -0.4526 -0.3733
  119MOL   Cl7038066   5.636   8.300   0.907 -0.2520 -0.0815 -0.2789
  119MOL    C7138067   5.516   8.161   0.701 -0.9285  0.2582 -0.1172
  119MOL    C7238068   5.395   8.103   0.644 -0.6775  0.0321 -0.3578
  119MOL    C7338069   5.274   8.101   0.711 -0.2882 -0.8568 -0.0520
  119MOL    C7438070   5.073   8.329   0.913 -0.0196  0.3824  0.2174
  119MOL    H7538071   5.159   8.153   1.010  1.5662 -1.3367 -0.3826
  119MOL    H7638072   5.370   8.284   0.982  0.8465 -1.1278  0.4839
  119MOL    H7738073   5.607   8.167   0.644 -2.1373  0.2832 -2.0941
  119MOL    H7838074   5.397   8.065   0.544  0.2570 -1.2667  0.1363
  119MOL    H7938075   5.191   8.044   0.672  0.1297 -1.4763 -0.0541
  119MOL    H8038076   5.001   8.348   0.992  0.7618  1.4086  0.7041
  119MOL    H8138077   5.147   8.387   0.968  0.0863  0.1069  0.3648
  119MOL    C8238078   5.042   8.407   0.780 -0.1135 -0.3458 -0.0895
  119MOL    C8338079   4.901   8.377   0.746  0.0382  0.0977 -0.3373
  119MOL    C8438080   4.801   8.419   0.834  1.0103  0.8829 -0.1893
  119MOL    C8538081   4.665   8.406   0.803 -0.0393 -0.1933  0.3115
  119MOL   Cl8638082   4.547   0.020   0.921 -0.0701  0.0327 -0.3516
  119MOL    C8738083   4.622   8.353   0.678  0.3323 -0.3710  0.6979
  119MOL    C8838084   4.725   8.324   0.576  0.1668 -0.5383 -0.4872
  119MOL    C8938085   4.861   8.333   0.618 -0.4979  0.3231  0.3558
  119MOL    C9038086   5.067   0.122   0.791 -0.2334  0.3889  0.1035
  119MOL    H9138087   5.099   8.362   0.699 -0.5468 -1.0562 -0.0035
  119MOL    H9238088   4.823   0.023   0.932 -0.1139 -1.7073  1.1482
  119MOL    H9338089   4.519   8.358   0.649  1.0719 -0.9783 -2.1964
  119MOL    H9438090   4.698   8.286   0.479  0.9661  2.1554 -1.8312
  119MOL    H9538091   4.939   8.321   0.543 -0.3119  0.3855  0.5386
  119MOL    H9638092   5.004   0.183   0.725  1.0824  5.4235  3.2261
  119MOL    H9738093   5.026   0.140   0.890  2.4873  0.9095  1.1712
  119MOL    C9838094   5.210   0.171   0.792  0.0698  0.5573 -0.1238
  119MOL    C9938095   5.282   0.165   0.657 -0.0665  0.2834 -0.0255
  119MOL   C10038096   5.396   0.081   0.639  0.8886 -0.4010 -0.0025
  119MOL   C10138097   5.463   0.092   0.514 -0.2186 -0.2040  0.1374
  119MOL  Cl10238098   5.604   8.434   0.497 -0.7827 -0.2111 -0.1837
  119MOL   C10338099   5.428   0.188   0.415  0.2080 -0.5954  0.1447
  119MOL   C10438100   5.309   0.260   0.435 -0.0924 -0.2730 -0.0500
  119MOL   C10538101   5.231   0.248   0.553  0.5494  0.8581  0.2391
  119MOL   C10638102   5.227   0.307   0.865  0.1241 -1.2300 -0.7796
  119MOL   H10738103   5.261   0.095   0.851 -1.4645 -0.9505 -0.7064
  119MOL   H10838104   5.431   0.011   0.713  0.4541 -0.2695  0.3270
  119MOL   H10938105   5.495   0.208   0.333 -0.0025 -0.8040 -0.0806
  119MOL   H11038106   5.276   0.329   0.359  1.4997  1.4473  0.7643
  119MOL   H11138107   5.144   0.308   0.575  1.1823  1.9916 -0.3128
  119MOL   H11238108   5.205   0.390   0.798 -1.0504 -1.2699 -0.4535
  119MOL   H11338109   5.154   0.320   0.944  0.5456  1.7731 -0.8528
  119MOL   C11438110   5.366   0.336   0.922  0.2663 -0.3727 -0.1190
  119MOL   C11538111   5.465   0.404   0.829 -0.2417 -0.1640  0.2883
  119MOL   C11638112   5.567   0.332   0.764  0.3404  0.1799 -0.3191
  119MOL   C11738113   5.661   0.402   0.690  0.4192  0.2186  0.4616
  119MOL  Cl11838114   5.781   0.307   0.608  0.0945 -0.0530  0.1494
  119MOL   C11938115   5.660   0.544   0.689  0.5079 -0.1900  0.6639
  119MOL   C12038116   5.548   0.613   0.732 -0.0507 -0.5953 -0.3694
  119MOL   C12138117   5.450   0.540   0.804  0.0802 -0.4684 -0.2284
  119MOL   C12238118   5.367   0.408   1.060 -0.3862 -0.2378 -0.4406
  119MOL   H12338119   5.407   0.237   0.940 -0.1968 -0.8407 -1.5363
  119MOL   H12438120   5.579   0.226   0.777 -0.2937  0.1802  0.3022
  119MOL   H12538121   5.738   0.594   0.633 -1.6960  0.5015 -1.8899
  119MOL   H12638122   5.539   0.720   0.730 -0.2393 -0.5941  0.4557
  119MOL   H12738123   5.367   0.598   0.842 -0.7645 -0.9173 -1.3619
  119MOL   H12838124   5.469   0.425   1.095 -0.1525 -1.2652 -0.6163
  119MOL   H12938125   5.316   0.503   1.046 -0.0131  0.3353  1.8557
  119MOL   C13038126   5.298   0.334   1.177 -0.3739  0.3193  0.4164
  119MOL   C13138127   5.343   0.191   1.205 -0.2802  0.5577 -0.6258
  119MOL   C13238128   5.254   0.090   1.252  0.7317  0.6346  0.1164
  119MOL   C13338129   5.294   8.398   1.297 -0.2622 -0.7483 -0.2072
  119MOL  Cl13438130   5.187   8.277   1.367 -0.0195  0.3235  0.2394
  119MOL   C13538131   5.430   8.373   1.279 -0.7721  0.0159 -0.1416
  119MOL   C13638132   5.520   0.032   1.222  0.6468 -0.0068 -0.0002
  119MOL   C13738133   5.480   0.164   1.190  0.2659 -0.4461 -0.5724
  119MOL   C13838134   5.300   0.418   1.307  0.4884  0.2966 -0.5375
  119MOL   H13938135   5.196   0.311   1.146 -0.5992 -0.3606  1.6324
  119MOL   H14038136   5.151   0.112   1.276  0.6018  0.6516 -0.4460
  119MOL   H14138137   5.469   8.280   1.318  0.3017  1.3392  2.0306
  119MOL   H14238138   5.624   0.007   1.207  0.3536 -2.0368  1.1711
  119MOL   H14338139   5.554   0.240   1.170 -1.7792  1.9823  0.8366
  119MOL   H14438140   5.315   0.351   1.391 -0.9496  0.0411 -0.4713
  119MOL   H14538141   5.391   0.476   1.316  0.8057 -0.0373 -1.5271
  119MOL   C14638142   5.168   0.487   1.332  0.5448  0.1302 -0.4079
  119MOL   C14738143   5.047   0.387   1.347  0.3532  0.3400 -0.6810
  119MOL   C14838144   4.939   0.389   1.254 -0.0927  0.2110  0.8495
  119MOL   C14938145   4.840   0.291   1.253  0.6064  0.1923  0.3536
  119MOL  Cl15038146   4.713   0.305   1.140 -0.1246 -0.4843 -0.2168
  119MOL   C15138147   4.830   0.200   1.363 -0.1047  0.0927  0.4805
  119MOL   C15238148   4.935   0.202   1.460  0.0605 -0.1979  0.3123
  119MOL   C15338149   5.043   0.292   1.454 -0.1163  0.0945  0.0345
  119MOL   C15438150   5.187   0.569   1.459  0.1009 -0.1193  0.3438
  119MOL   H15538151   5.148   0.557   1.251  1.5713  0.9520  0.0464
  119MOL   H15638152   4.939   0.468   1.180  2.6758  0.5764  1.2151
  119MOL   H15738153   4.746   0.132   1.367 -0.0694 -0.0135 -0.5993
  119MOL   H15838154   4.929   0.127   1.538 -4.1340 -2.0953 -1.6833
  119MOL   H15938155   5.113   0.279   1.535 -0.0042  1.9631  0.2564
  119MOL   H16038156   5.238   0.514   1.539 -1.7027 -1.3332  0.6888
  119MOL   H16138157   5.249   0.649   1.420 -0.9088  0.3759 -0.2544
  119MOL   C16238158   5.056   0.627   1.528  0.0027  0.0637  0.1329
  119MOL   C16338159   5.105   0.724   1.634  0.6764  1.2353 -0.1226
  119MOL   C16438160   5.178   0.837   1.595 -0.4635 -0.1246 -1.0026
  119MOL   C16538161   5.232   0.933   1.690  0.1954  0.2509  0.2032
  119MOL  Cl16638162   5.314   1.082   1.643 -0.2727 -0.0254  0.2763
  119MOL   C16738163   5.228   0.909   1.827  0.7952 -0.0992  0.0661
  119MOL   C16838164   5.160   0.794   1.871  0.2437 -0.0066 -0.4014
  119MOL   C16938165   5.103   0.698   1.780  0.1937 -0.0227  0.3875
  119MOL   C17038166   4.941   0.684   1.434 -0.2753  0.4129 -0.1524
  119MOL   H17138167   5.020   0.545   1.590  1.0117 -0.4740  0.0230
  119MOL   H17238168   5.169   0.861   1.490  0.8492  1.8079 -0.7088
  119MOL   H17338169   5.282   0.966   1.901  1.4240  0.0631 -0.5080
  119MOL   H17438170   5.146   0.776   1.977  0.9329 -0.6788 -0.4127
  119MOL   H17538171   5.049   0.611   1.813 -0.7179  0.3764 -0.0580
  119MOL   H17638172   4.979   0.706   1.334  0.1752  2.8092  0.5236
  119MOL   H17738173   4.865   0.606   1.435 -0.0673  0.2109  0.0906
  119MOL   C17838174   4.860   0.810   1.487 -0.6449 -0.2934 -0.5270
  119MOL   C17938175   4.917   0.944   1.439  0.0498 -0.4766 -0.1021
  119MOL   C18038176   4.936   1.046   1.537  0.4319 -0.4053 -0.2366
  119MOL   C18138177   4.986   1.175   1.501  0.0131 -0.4997  0.1593
  119MOL  Cl18238178   5.008   1.300   1.621 -0.1472  0.0957 -0.3192
  119MOL   C18338179   5.012   1.200   1.360  0.6103 -0.0854 -0.7878
  119MOL   C18438180   5.004   1.091   1.268 -0.2081  0.0940  0.3857
  119MOL   C18538181   4.951   0.967   1.306  0.6962  0.5903 -0.0262
  119MOL   C18638182   4.709   0.806   1.446  0.5893  0.2066  0.6380
  119MOL   H18738183   4.866   0.805   1.596 -0.6330 -0.9046 -0.5531
  119MOL   H18838184   4.912   1.029   1.641 -1.2890  0.7194 -0.4286
  119MOL   H18938185   5.050   1.300   1.344 -1.2435  0.7877  0.1636
  119MOL   H19038186   5.032   1.098   1.164  0.5642 -1.3221  0.4819
  119MOL   H19138187   4.952   0.886   1.235  0.0362 -0.9182  1.6551
  119MOL   H19238188   4.671   0.908   1.438  1.7524  0.7249  1.4693
  119MOL   H19338189   4.698   0.766   1.346  1.9972  1.6411 -0.1060
  119MOL   C19438190   4.602   0.742   1.539  0.5676 -0.0013  0.2691
  119MOL   C19538191   4.642   0.768   1.682  0.6367  0.4772  0.8015
  119MOL   C19638192   4.711   0.665   1.757 -0.2615  0.3633  0.6104
  119MOL   C19738193   4.740   0.686   1.891  0.6091  0.2509 -0.2436
  119MOL  Cl19838194   4.843   0.576   1.979  0.3987 -0.0952  0.2292
  119MOL   C19938195   4.703   0.810   1.954 -0.0207 -0.1317  0.4309
  119MOL   C20038196   4.640   0.911   1.880  0.6783 -0.3097 -0.0245
  119MOL   C20138197   4.606   0.889   1.746  0.1078 -0.3504  0.0951
  119MOL   C20238198   4.457   0.794   1.507 -0.1485 -0.2613  0.4333
  119MOL   H20338199   4.595   0.635   1.521  1.5031  0.3050 -2.0210
  119MOL   H20438200   4.735   0.571   1.711  1.1607  0.9703  0.0577
  119MOL   H20538201   4.752   0.848   2.043 -0.0478  2.1098 -0.4658
  119MOL   H20638202   4.625   1.006   1.928 -1.7737  0.5693 -2.3911
  119MOL   H20738203   4.563   0.973   1.694  0.6088  0.6917  1.3624
  119MOL   H20838204   4.391   0.738   1.574 -0.3988 -1.5357 -0.8460
  119MOL   H20938205   4.439   0.899   1.529 -1.3666  0.0004 -1.7679
  119MOL   C21038206   4.407   0.761   1.366  0.3672 -0.1772 -0.6970
  119MOL   C21138207   4.387   0.608   1.345 -0.3445  0.4660  1.1125
  119MOL   C21238208   4.320   0.523   1.439  0.2860  0.1135  0.1154
  119MOL   C21338209   4.291   0.392   1.402 -0.1170 -0.2829 -0.1326
  119MOL  Cl21438210   4.218   0.290   1.520  0.4837 -0.1058  0.4386
  119MOL   C21538211   4.331   0.337   1.278 -0.7840  0.5397  0.8469
  119MOL   C21638212   4.405   0.417   1.191 -1.0800 -0.6688  0.1846
  119MOL   C21738213   4.420   0.551   1.216  0.0159  0.2053 -0.9718
  119MOL   C21838214   4.285   0.846   1.310 -0.4090 -0.6308 -0.5166
  119MOL   H21938215   4.484   0.785   1.292 -2.4038 -1.0278 -3.9997
  119MOL   H22038216   4.294   0.565   1.535 -0.9015  0.3377 -0.3013
  119MOL   H22138217   4.304   0.235   1.255 -1.2725  0.5682  1.2843
  119MOL   H22238218   4.432   0.382   1.092  0.1933  0.9851 -0.0871
  119MOL   H22338219   4.458   0.618   1.140  1.6810  2.0783  1.4118
  119MOL   H22438220   4.303   0.953   1.316  0.4936 -0.7145 -1.4223
  119MOL   H22538221   4.276   0.827   1.203 -0.8266 -1.1709 -0.3864
  119MOL   C22638222   4.148   0.825   1.378  0.2261 -0.6182 -0.1165
  119MOL   C22738223   4.087   0.949   1.439 -0.4024 -0.7930  0.3855
  119MOL   C22838224   4.006   1.029   1.362  0.4930 -0.5007  0.3687
  119MOL   C22938225   3.931   1.133   1.430  0.0850  0.7444  0.1058
  119MOL  Cl23038226   3.808   1.227   1.352 -0.1835  0.4718 -0.0398
  119MOL   C23138227   3.949   1.153   1.566  0.3151 -0.3060  0.1170
  119MOL   C23238228   4.041   1.076   1.644  0.2490  0.6967 -0.5054
  119MOL   C23338229   4.103   0.968   1.580 -0.0631  0.7477  0.0895
  119MOL   C23438230   4.049   0.739   1.283  0.5118 -0.4747 -0.7372
  119MOL   H23538231   4.178   0.749   1.450 -2.5013  0.1761  1.9578
  119MOL   H23638232   3.990   1.013   1.256  2.1681  1.5936 -0.2303
  119MOL   H23738233   3.877   1.217   1.615  0.8733  0.7929 -0.4870
  119MOL   H23838234   4.038   1.095   1.750  0.0729 -0.9769 -0.1921
  119MOL   H23938235   4.161   0.907   1.648  0.3376 -0.6777 -1.4964
  119MOL   H24038236   4.043   0.782   1.184 -2.6240 -0.9637 -0.8133
  119MOL   H24138237   4.100   0.647   1.254  1.3340 -0.0162 -0.7550
  119MOL   C24238238   3.901   0.717   1.329 -0.2165 -0.2169 -0.5277
  119MOL   C24338239   3.825   0.649   1.213  0.2656  0.0675 -0.1026
  119MOL   C24438240   3.732   0.715   1.132  0.7388 -0.1149  0.8248
  119MOL   C24538241   3.690   0.667   1.005  0.3402  0.4095  0.8647
  119MOL  Cl24638242   3.591   0.765   0.907  0.2833 -0.2187  0.1827
  119MOL   C24738243   3.731   0.539   0.967 -0.6880 -0.4806  0.0814
  119MOL   C24838244   3.815   0.467   1.049 -0.6660  0.8119 -0.8229
  119MOL   C24938245   3.864   0.523   1.170 -0.5920 -0.8548  0.5115
  119MOL   C25038246   3.882   0.627   1.456  0.3719  0.6678  0.0396
  119MOL   H25138247   3.849   0.812   1.344  0.3656 -0.0120  0.2158
  119MOL   H25238248   3.710   0.817   1.163  0.4831 -0.2978  1.2618
  119MOL   H25338249   3.705   0.499   0.870 -0.2885 -1.2201  0.2705
  119MOL   H25438250   3.860   0.375   1.016  1.1827  0.9617  1.1590
  119MOL   H25538251   3.932   0.462   1.227  0.9129  1.3133  1.1197
  119MOL   H25638252   3.802   0.555   1.443 -1.6053  2.4570  1.9602
  119MOL   H25738253   3.973   0.566   1.462 -0.0652  0.0767  0.8201
  119MOL   C25838254   3.860   0.690   1.597 -0.1308 -0.1482  0.4656
  119MOL   C25938255   3.733   0.775   1.613  0.0865  0.7670 -0.5726
  119MOL   C26038256   3.736   0.884   1.697  0.0770 -0.4061  0.5511
  119MOL   C26138257   3.621   0.967   1.713  0.4415  0.5546 -0.9404
  119MOL  Cl26238258   3.634   1.109   1.808 -0.1240 -0.1607  0.3027
  119MOL   C26338259   3.503   0.935   1.647 -0.1478 -0.3664  0.3421
  119MOL   C26438260   3.496   0.820   1.559 -0.3390  0.3156  0.3271
  119MOL   C26538261   3.612   0.743   1.542 -0.8599  0.2783 -0.1199
  119MOL   C26638262   3.848   0.584   1.715  0.6232  0.3091  0.4770
  119MOL   H26738263   3.943   0.755   1.626 -0.2427  0.3544 -0.3422
  119MOL   H26838264   3.823   0.904   1.758  0.1486  0.4229  0.1796
  119MOL   H26938265   3.416   0.999   1.651 -0.8119 -1.2173 -0.5625
  119MOL   H27038266   3.408   0.782   1.508  0.7291 -1.9523  0.1467
  119MOL   H27138267   3.612   0.671   1.461 -1.1696  2.4394 -2.0888
  119MOL   H27238268   3.821   0.630   1.810  0.0600  1.7776 -0.3804
  119MOL   H27338269   3.765   0.515   1.698  0.7023  0.6702 -1.4351
  119MOL   C27438270   3.982   0.512   1.751 -0.2274  0.0039 -0.3870
  119MOL   C27538271   4.096   0.586   1.807  0.4449 -0.0264  0.8659
  119MOL   C27638272   4.082   0.706   1.883 -0.5157  0.0864 -0.2050
  119MOL   C27738273   4.194   0.762   1.941 -0.2953 -0.4649 -0.1472
  119MOL  Cl27838274   4.165   0.907   2.025  0.5018 -0.1212 -0.0262
  119MOL   C27938275   4.320   0.709   1.926  0.1687  0.1580 -0.1444
  119MOL   C28038276   4.335   0.586   1.862  0.1203 -0.2562 -0.3222
  119MOL   C28138277   4.229   0.533   1.793 -0.6694 -0.2584  0.2584
  119MOL   C28238278   3.954   0.378   1.822  0.2007 -0.6559  0.5938
  119MOL   H28338279   4.019   0.489   1.651  3.5931  0.1375  0.8897
  119MOL   H28438280   3.983   0.747   1.896 -0.3201  0.6334 -0.4391
  119MOL   H28538281   4.403   0.759   1.973 -0.1590  0.8322 -0.2793
  119MOL   H28638282   4.431   0.544   1.839 -0.4055 -0.7715 -1.6829
  119MOL   H28738283   4.240   0.435   1.748  0.4917 -0.0594  0.1006
  119MOL   H28838284   3.862   0.340   1.777  1.1804  0.5169 -2.5074
  119MOL   H28938285   4.034   0.311   1.789  1.7880  0.9417  1.1531
  119MOL   C29038286   3.944   0.370   1.977 -0.9280 -0.2677  0.7554
  119MOL   C29138287   3.853   0.475   2.035  0.2846  0.2926  0.0273
  119MOL   C29238288   3.718   0.463   1.999  0.4999 -0.4471 -0.3812
  119MOL   C29338289   3.622   0.548   2.057  0.1995  0.1920 -0.4404
  119MOL  Cl29438290   3.456   0.545   2.016 -0.0040 -0.1636  0.1092
  119MOL   C29538291   3.660   0.638   2.151  0.2856 -0.1098 -0.2497
  119MOL   C29638292   3.796   0.655   2.194 -0.2971 -0.2615  0.2612
  119MOL   C29738293   3.889   0.571   2.133 -0.9817  0.5172  0.3413
  119MOL   C29838294   3.920   0.220   2.027  0.2178 -0.6238  0.4681
  119MOL   H29938295   4.041   0.399   2.018 -0.6502  0.7768 -0.6181
  119MOL   H30038296   3.685   0.386   1.931 -0.0369 -0.5698  0.0124
  119MOL   H30138297   3.579   0.700   2.187 -1.0457 -1.0475 -1.5818
  119MOL   H30238298   3.825   0.731   2.264  0.3330 -0.8146  0.6098
  119MOL   H30338299   3.993   0.579   2.161 -0.4941 -0.7448 -1.0604
  119MOL   H30438300   3.829   0.193   1.974 -0.6653 -1.0759  2.1637
  119MOL   H30538301   3.999   0.154   1.992  1.4412  1.0899 -0.0780
  119MOL   C30638302   3.892   0.198   2.180  0.2263  0.3901  0.2977
  119MOL   C30738303   3.826   0.066   2.193 -0.3736 -0.0093  0.0157
  119MOL   C30838304   3.720   0.046   2.285 -0.2048  0.4210 -0.1870
  119MOL   C30938305   3.651   8.356   2.297 -0.5699 -0.5827  0.3542
  119MOL  Cl31038306   3.498   8.356   2.386  0.2785 -0.1464  0.0373
  119MOL   C31138307   3.700   8.241   2.246  0.1033  0.1993 -0.1603
  119MOL   C31238308   3.817   8.256   2.170  0.7734 -0.8837 -0.3375
  119MOL   C31338309   3.880   8.380   2.139  0.1949 -0.1053  0.3847
  119MOL   C31438310   4.019   0.207   2.271  0.4006 -0.4642  0.4392
  119MOL   H31538311   3.824   0.277   2.211 -1.8124 -0.9965 -0.5411
  119MOL   H31638312   3.665   0.129   2.327  3.0375  2.3670  0.3692
  119MOL   H31738313   3.650   8.145   2.258  0.6287 -0.1634 -0.8445
  119MOL   H31838314   3.847   8.158   2.136  0.1283 -1.8566  1.8146
  119MOL   H31938315   3.975   8.388   2.087 -0.7883 -0.0512 -1.4155
  119MOL   H32038316   4.088   0.127   2.246 -0.4780 -1.2031  0.3874
  119MOL   H32138317   4.077   0.297   2.250  0.4397 -1.1710 -2.6112
  119MOL   H32238318   3.998   0.206   2.378  0.6855 -0.9398  0.4927
  120MOL     C138319   8.107   4.677   6.980  0.1443 -0.1485 -0.3433
  120MOL     C238320   8.074   4.812   7.040  0.8014 -0.1181 -0.6004
  120MOL     C338321   7.950   4.876   7.031  0.0076  0.0900 -0.1906
  120MOL     C438322   7.916   5.000   7.090 -0.2944  0.0784  0.4214
  120MOL    Cl538323   7.755   5.063   7.085  0.0782 -0.4290 -0.3143
  120MOL     C638324   8.012   5.053   7.177 -0.7533 -0.4454  0.3191
  120MOL     C738325   8.137   4.992   7.188  0.2239  0.0919 -0.1695
  120MOL     C838326   8.174   4.878   7.121 -0.8046  0.2099  0.1052
  120MOL     C938327   8.193   4.684   6.855 -0.5844  0.0637 -0.3598
  120MOL    H1038328   8.016   4.625   6.951  1.2614 -2.5175  0.3224
  120MOL    H1138329   7.866   4.829   6.982  0.3590 -0.3111 -0.4202
  120MOL    H1238330   8.004   5.147   7.229 -0.7368 -0.6200  0.6383
  120MOL    H1338331   8.211   5.043   7.248 -0.0171 -0.0369  0.2392
  120MOL    H1438332   8.271   4.833   7.134 -2.2876 -2.4990  2.3553
  120MOL    H1538333   8.135   4.726   6.773 -0.8954  0.7470  0.2009
  120MOL    H1638334   8.279   4.748   6.877 -1.1756  1.3843 -1.8156
  120MOL    H1738335   8.152   4.611   7.054 -0.7845 -0.2119  0.1731
  120MOL    C1838336   8.259   4.545   6.825 -0.0300  0.7557 -0.2482
  120MOL    C1938337   8.153   4.431   6.799  0.0996 -0.0527  0.2953
  120MOL    C2038338   8.103   4.353   6.913 -0.3376  0.2694  0.1711
  120MOL    C2138339   8.006   4.248   6.889  0.1890 -0.0034 -1.2518
  120MOL   Cl2238340   7.962   4.142   7.019 -0.2147 -0.2743 -0.3411
  120MOL    C2338341   7.957   4.228   6.760 -0.4324 -0.2002  0.3588
  120MOL    C2438342   7.999   4.310   6.654  0.0588  0.0970 -0.5984
  120MOL    C2538343   8.096   4.402   6.675  0.0033 -0.1581  0.7896
  120MOL    C2638344   8.365   4.559   6.716  0.1380  0.7067  0.4516
  120MOL    H2738345   8.314   4.508   6.912  0.6955  2.5755  0.1057
  120MOL    H2838346   8.150   4.373   7.008  2.3393  1.7763 -1.4197
  120MOL    H2938347   7.885   4.153   6.728 -1.2689  0.8801 -0.3150
  120MOL    H3038348   7.966   4.283   6.555 -3.8547  0.5884  0.4939
  120MOL    H3138349   8.140   4.453   6.591 -0.0294  0.8944  1.4009
  120MOL    H3238350   8.312   4.611   6.636  1.0052  0.7244 -0.1128
  120MOL    H3338351   0.002   4.634   6.749  0.6475  1.5338 -2.4129
  120MOL    C3438352   0.002   4.427   6.667 -0.4158 -0.4562  0.1005
  120MOL    C3538353   0.062   4.462   6.534  0.6384 -0.5836  0.5602
  120MOL    C3638354   0.006   4.405   6.419  0.2066  0.1088  0.2997
  120MOL    C3738355   0.065   4.420   6.293  0.4768  0.1295 -0.2765
  120MOL   Cl3838356   0.005   4.355   6.148  0.2306 -0.2948 -0.3445
  120MOL    C3938357   0.177   4.501   6.281 -0.4531  0.5717 -0.3700
  120MOL    C4038358   0.233   4.567   6.390 -0.2846 -0.1710 -0.6823
  120MOL    C4138359   0.173   4.546   6.519  0.0229  0.1797 -0.6553
  120MOL    C4238360   0.109   4.375   6.775  0.2817  0.2284 -0.2133
  120MOL    H4338361   8.365   4.346   6.655 -0.5869 -0.7477  2.8591
  120MOL    H4438362   8.350   4.348   6.420  0.4427 -0.3046 -0.7061
  120MOL    H4538363   0.211   4.520   6.180  1.6324 -0.9948 -0.0107
  120MOL    H4638364   0.331   4.612   6.383 -0.7116  1.2600  1.8116
  120MOL    H4738365   0.224   4.600   6.597 -1.7555 -2.0241  2.1701
  120MOL    H4838366   0.194   4.441   6.760  0.1668  0.3539 -0.3073
  120MOL    H4938367   0.077   4.393   6.878 -3.9203  1.0378 -1.5675
  120MOL    C5038368   0.141   4.227   6.766  0.3788  0.0099  0.3458
  120MOL    C5138369   0.215   4.192   6.636 -0.2433 -0.5814 -0.0127
  120MOL    C5238370   0.161   4.110   6.539 -0.1105  0.5796  0.1296
  120MOL    C5338371   0.227   4.096   6.416  0.2732  0.5459  0.4814
  120MOL   Cl5438372   0.183   3.949   6.325 -0.2525  0.0577 -0.1976
  120MOL    C5538373   0.338   4.173   6.377  0.2169  0.0898  0.4301
  120MOL    C5638374   0.393   4.249   6.477 -0.1580 -0.3244 -0.4549
  120MOL    C5738375   0.335   4.265   6.605 -0.3486 -0.1914 -0.3997
  120MOL    C5838376   0.224   4.183   6.882 -0.3726 -0.4665  0.0734
  120MOL    H5938377   0.056   4.159   6.762  1.3272 -1.1204 -1.8821
  120MOL    H6038378   0.076   4.046   6.557  0.0426  0.2348 -0.3498
  120MOL    H6138379   0.372   4.175   6.275 -0.6973 -0.9659  0.0888
  120MOL    H6238380   0.480   4.306   6.448  0.6570 -1.8322 -0.9805
  120MOL    H6338381   0.383   4.333   6.673 -1.8409 -1.3252  1.8367
  120MOL    H6438382   0.330   4.202   6.866 -1.4278  2.6821 -3.9289
  120MOL    H6538383   0.199   4.242   6.970  0.8329  0.0835  0.0589
  120MOL    C6638384   0.204   4.030   6.925  0.4608  0.5024  0.5118
  120MOL    C6738385   0.244   3.930   6.812 -0.3302  0.1071  0.0559
  120MOL    C6838386   0.153   3.837   6.768  0.3460  0.7098  0.1273
  120MOL    C6938387   0.180   3.759   6.653 -0.0462 -0.0195 -0.2369
  120MOL   Cl7038388   0.062   3.640   6.613  0.1669  0.2324  0.6371
  120MOL    C7138389   0.302   3.776   6.588 -0.3945 -0.0441  0.0211
  120MOL    C7238390   0.397   3.864   6.638 -0.0707  0.7254 -0.4234
  120MOL    C7338391   0.374   3.939   6.758 -0.5147  0.0431 -0.0646
  120MOL    C7438392   0.268   3.977   7.058  0.4047 -0.1550  0.4566
  120MOL    H7538393   0.097   4.015   6.937  0.4103  1.6381  1.6113
  120MOL    H7638394   0.057   3.834   6.817  0.4664  1.0242  0.3821
  120MOL    H7738395   0.322   3.720   6.498 -0.0362  0.1369 -0.0123
  120MOL    H7838396   0.497   3.861   6.597  0.6361  0.2092  1.2813
  120MOL    H7938397   0.453   4.000   6.798  0.5331 -1.7395  0.6296
  120MOL    H8038398   0.228   3.877   7.072 -1.8817  0.7187  0.5041
  120MOL    H8138399   0.376   3.972   7.049  0.4603  2.5068 -0.9686
  120MOL    C8238400   0.243   4.054   7.189  0.4131 -0.2380  0.0515
  120MOL    C8338401   0.102   4.103   7.211  0.0192  1.0171  0.4854
  120MOL    C8438402   0.063   4.237   7.227  0.2284 -0.1608 -0.4040
  120MOL    C8538403   8.362   4.280   7.229 -0.2529  0.2972 -0.2137
  120MOL   Cl8638404   8.324   4.448   7.234  0.0213  0.1768  0.1619
  120MOL    C8738405   8.262   4.184   7.233  1.2960  0.4553  0.6697
  120MOL    C8838406   8.299   4.046   7.234  0.1502 -0.2441  0.3270
  120MOL    C8938407   0.001   4.008   7.233 -0.2206  0.5764  0.8595
  120MOL    C9038408   0.298   3.992   7.319  0.6711 -0.0282  0.3849
  120MOL    H9138409   0.290   4.150   7.171 -0.7062  0.2617 -0.2611
  120MOL    H9238410   0.138   4.314   7.221 -0.4352  0.6138  1.0672
  120MOL    H9338411   8.158   4.208   7.246  0.8925 -1.8220  1.8182
  120MOL    H9438412   8.223   3.971   7.247  1.0359 -1.1928  0.0768
  120MOL    H9538413   0.021   3.902   7.233 -1.9261  0.2511  0.0009
  120MOL    H9638414   0.237   4.039   7.396  1.7749  0.2223  1.1221
  120MOL    H9738415   0.290   3.883   7.320 -2.3181  0.1212  3.4397
  120MOL    C9838416   0.435   4.030   7.361 -0.2032  0.4812  0.3128
  120MOL    C9938417   0.454   4.178   7.357 -0.3801 -0.5490 -0.5859
  120MOL   C10038418   0.369   4.265   7.422 -0.2040  0.5644  0.4794
  120MOL   C10138419   0.381   4.406   7.406  0.1292 -0.3493  0.3504
  120MOL  Cl10238420   0.270   4.514   7.483 -0.1294  0.1798 -0.0280
  120MOL   C10338421   0.480   4.453   7.322  0.7897  0.3646  0.0176
  120MOL   C10438422   0.561   4.367   7.245  0.1221  0.1577  0.0456
  120MOL   C10538423   0.551   4.228   7.265 -0.5266 -0.0762  0.1510
  120MOL   C10638424   0.477   3.955   7.498 -0.8003  0.2815  0.5412
  120MOL   H10738425   0.497   3.998   7.277  2.0824  2.4078  1.2322
  120MOL   H10838426   0.299   4.229   7.496 -0.3044 -0.9266 -0.3010
  120MOL   H10938427   0.492   4.559   7.303  1.3340  0.2775 -0.1315
  120MOL   H11038428   0.634   4.400   7.173  1.5118 -1.2735  0.7952
  120MOL   H11138429   0.617   4.170   7.202  2.1083  3.3738 -0.4000
  120MOL   H11238430   0.559   4.002   7.553  1.8447 -3.1795 -0.3325
  120MOL   H11338431   0.391   3.960   7.565 -0.8141 -1.6233  0.6727
  120MOL   C11438432   0.527   3.805   7.483 -0.6846  0.1847  0.0410
  120MOL   C11538433   0.654   3.785   7.399  0.1851  1.3028  0.7449
  120MOL   C11638434   0.672   3.666   7.322 -0.2505 -0.0536  0.5761
  120MOL   C11738435   0.796   3.646   7.253  0.6526 -0.0863 -0.3433
  120MOL  Cl11838436   0.821   3.515   7.148 -0.2893 -0.1199  0.4835
  120MOL   C11938437   0.906   3.724   7.279  0.5207  1.0130 -1.0975
  120MOL   C12038438   0.879   3.850   7.343 -0.3713 -0.5001 -0.6964
  120MOL   C12138439   0.752   3.883   7.403 -0.0225  0.0104  0.2568
  120MOL   C12238440   0.549   3.741   7.621  0.7730 -0.4065 -0.7978
  120MOL   H12338441   0.454   3.757   7.418 -0.1503  0.1080 -0.5091
  120MOL   H12438442   0.592   3.595   7.307 -2.7480  2.5666  1.0795
  120MOL   H12538443   1.004   3.698   7.242  0.5359 -0.7336  0.1043
  120MOL   H12638444   0.951   3.929   7.359 -2.5952  1.9408 -2.1839
  120MOL   H12738445   0.747   3.979   7.451 -1.2412  0.6805 -1.1544
  120MOL   H12838446   0.644   3.769   7.667  1.6771 -0.8983 -2.3341
  120MOL   H12938447   0.467   3.778   7.682 -1.0169 -0.7692 -2.9297
  120MOL   C13038448   0.547   3.582   7.629 -0.0129  0.3841 -0.4036
  120MOL   C13138449   0.650   3.524   7.724 -0.0847  0.3922 -0.2454
  120MOL   C13238450   0.639   3.547   7.860  0.0654 -0.7660  0.3279
  120MOL   C13338451   0.739   3.494   7.947  0.5130  0.0936 -0.6577
  120MOL  Cl13438452   0.740   3.559   8.110  0.0922  0.0803 -0.3808
  120MOL   C13538453   0.837   3.408   7.901  0.3217 -0.2675 -0.3191
  120MOL   C13638454   0.848   3.379   7.758  0.2001 -0.1735 -0.0130
  120MOL   C13738455   0.757   3.446   7.671 -0.4639 -0.4509  0.5654
  120MOL   C13838456   0.411   3.522   7.676 -0.5787  0.7662 -0.3429
  120MOL   H13938457   0.578   3.542   7.533  0.7692  1.3247 -0.5512
  120MOL   H14038458   0.562   3.611   7.900 -0.7762 -0.6184 -1.4852
  120MOL   H14138459   0.909   3.367   7.970  0.5915 -0.4161 -0.6880
  120MOL   H14238460   0.907   3.291   7.739  0.1858  0.1940 -1.8749
  120MOL   H14338461   0.761   3.414   7.568  0.0296 -0.0667  0.4650
  120MOL   H14438462   0.426   3.419   7.707 -0.1993  1.3330  1.3645
  120MOL   H14538463   0.376   3.572   7.766 -0.2455  2.3319 -1.0679
  120MOL   C14638464   0.291   3.529   7.578 -0.4770 -0.0371  0.0276
  120MOL   C14738465   0.326   3.468   7.439  0.3550 -0.7090 -0.3632
  120MOL   C14838466   0.420   3.361   7.427  0.4531 -0.3201  0.5179
  120MOL   C14938467   0.449   3.320   7.303  0.1972 -0.0181  0.2266
  120MOL  Cl15038468   0.555   3.186   7.286 -0.2259  0.0631 -0.0219
  120MOL   C15138469   0.395   3.378   7.188  0.3670 -0.7582  0.2256
  120MOL   C15238470   0.304   3.486   7.192  0.9070 -0.1185 -0.1458
  120MOL   C15338471   0.267   3.530   7.324  0.8615 -0.6001 -0.0311
  120MOL   C15438472   0.163   3.468   7.631 -0.7065 -0.7208  0.5953
  120MOL   H15538473   0.272   3.634   7.555 -1.5684  0.0642  1.3276
  120MOL   H15638474   0.462   3.306   7.510  1.9214 -0.5229 -0.3476
  120MOL   H15738475   0.425   3.342   7.091 -0.8208  0.8367 -0.7658
  120MOL   H15838476   0.259   3.522   7.101  1.7513 -1.7413 -1.2378
  120MOL   H15938477   0.195   3.608   7.343  0.5156 -0.4291 -1.9267
  120MOL   H16038478   0.100   3.426   7.553  1.5788 -2.4819 -0.3751
  120MOL   H16138479   0.196   3.375   7.678 -1.3766 -0.2294  2.0894
  120MOL   C16238480   0.080   3.542   7.734  0.1320 -0.5964  0.3045
  120MOL   C16338481   8.397   3.607   7.666 -1.1460 -0.7186  0.1156
  120MOL   C16438482   8.277   3.541   7.643  0.4038 -0.2880 -0.7066
  120MOL   C16538483   8.170   3.608   7.584  0.7066  0.2314 -0.3149
  120MOL  Cl16638484   8.019   3.529   7.573  0.6321  0.0572 -0.3181
  120MOL   C16738485   8.189   3.739   7.537  0.5418 -0.0030  0.5657
  120MOL   C16838486   8.318   3.797   7.532  0.1794 -0.7400 -0.2863
  120MOL   C16938487   8.418   3.735   7.604  0.1080 -0.4865  0.0158
  120MOL   C17038488   0.032   3.454   7.855  0.3379  0.0335 -0.3429
  120MOL   H17138489   0.145   3.620   7.773  2.1467 -2.5361  0.8643
  120MOL   H17238490   8.251   3.445   7.683 -0.5428  0.4483  0.4704
  120MOL   H17338491   8.104   3.787   7.491 -0.5391  0.2000  2.7196
  120MOL   H17438492   8.336   3.894   7.489 -0.0672 -0.3749  0.4281
  120MOL   H17538493   0.079   3.784   7.611 -0.1150  0.0049 -0.3863
  120MOL   H17638494   8.383   3.385   7.848  1.5560 -1.4236 -0.9977
  120MOL   H17738495   0.113   3.383   7.874  0.3049  0.0494 -0.1429
  120MOL   C17838496   0.024   3.519   7.994 -0.6858 -0.0086  0.5178
  120MOL   C17938497   8.360   3.636   7.989 -0.5259  1.4667 -0.1215
  120MOL   C18038498   8.225   3.612   7.950 -0.1710 -0.8083  0.0969
  120MOL   C18138499   8.143   3.721   7.922  0.1424  0.5836 -0.5033
  120MOL  Cl18238500   7.972   3.702   7.898 -0.2876  0.0646 -0.0677
  120MOL   C18338501   8.196   3.854   7.937 -0.4929  0.5524  0.0300
  120MOL   C18438502   8.329   3.872   7.984 -0.4432  0.2285  0.6662
  120MOL   C18538503   8.413   3.766   8.000 -0.6989  0.3922  0.4423
  120MOL   C18638504   8.416   3.421   8.105 -0.4996 -1.0081 -0.4848
  120MOL   H18738505   0.114   3.565   8.033 -1.2956  0.7906  1.0045
  120MOL   H18838506   8.191   3.513   7.924  1.2749 -1.1523 -0.5462
  120MOL   H18938507   8.141   3.943   7.910 -0.6559  0.4852  0.1381
  120MOL   H19038508   8.359   3.975   7.990 -1.5078  0.5536  0.3973
  120MOL   H19138509   0.080   3.784   8.028 -0.1554 -0.7196 -0.7619
  120MOL   H19238510   8.421   3.475   8.200 -0.6569 -1.3292 -0.2952
  120MOL   H19338511   8.312   3.390   8.104 -0.4773 -1.4953  3.6302
  120MOL   C19438512   0.065   3.295   8.121 -0.2546 -0.2947 -0.7276
  120MOL   C19538513   0.209   3.330   8.137 -0.1771  0.0224  0.3153
  120MOL   C19638514   0.301   3.273   8.047 -1.0157  0.7020  0.2823
  120MOL   C19738515   0.438   3.297   8.064  0.2288 -0.7097  0.0274
  120MOL  Cl19838516   0.545   3.235   7.955 -0.4529 -0.2752 -0.0136
  120MOL   C19938517   0.484   3.372   8.168 -0.2134 -0.0627 -0.0058
  120MOL   C20038518   0.394   3.416   8.263  0.1072 -0.7101  0.3946
  120MOL   C20138519   0.254   3.409   8.244  0.4830 -0.0111 -0.3856
  120MOL   C20238520   0.024   3.213   8.242 -0.2346  0.0578 -0.3614
  120MOL   H20338521   0.058   3.220   8.043 -0.3734  2.0234 -3.0081
  120MOL   H20438522   0.269   3.214   7.962  3.7973 -1.0922 -0.4125
  120MOL   H20538523   0.591   3.372   8.181 -0.4513 -0.8881  2.1218
  120MOL   H20638524   0.422   3.474   8.349 -1.8441 -1.2646  1.4241
  120MOL   H20738525   0.188   3.442   8.324 -0.4654 -1.8815 -0.3647
  120MOL   H20838526   0.101   3.138   8.251 -0.3422  0.0780  0.7435
  120MOL   H20938527   0.043   3.281   8.325 -1.2964  0.7754 -0.6923
  120MOL   C21038528   8.312   3.162   8.250  0.1009 -0.1463 -0.1912
  120MOL   C21138529   8.282   3.029   8.174 -0.2931 -0.3329  0.1652
  120MOL   C21238530   8.275   2.908   8.245 -0.1595 -0.1574  0.2815
  120MOL   C21338531   8.246   2.786   8.182 -0.4766 -0.8251  0.1324
  120MOL  Cl21438532   8.248   2.636   8.275 -0.0955  0.0752  0.0742
  120MOL   C21538533   8.220   2.787   8.046 -0.7689  0.7418  0.6048
  120MOL   C21638534   8.235   2.907   7.970  0.3068  0.0003 -0.2222
  120MOL   C21738535   8.273   3.025   8.034 -0.1719  0.7012 -0.0517
  120MOL   C21838536   8.255   3.162   8.393  0.2392  0.6719 -0.3146
  120MOL   H21938537   8.244   3.230   8.199  1.3609  1.5033  0.2749
  120MOL   H22038538   8.296   2.897   8.351  0.9167 -0.7297  0.0118
  120MOL   H22138539   8.194   2.690   8.007 -3.1895  1.4212  0.4347
  120MOL   H22238540   8.220   2.919   7.864 -0.8932  0.7204  0.0259
  120MOL   H22338541   8.283   3.118   7.980 -0.2335 -0.5805 -2.3594
  120MOL   H22438542   8.163   3.103   8.397  0.4659  0.4202  1.6124
  120MOL   H22538543   8.320   3.099   0.019 -0.6541 -2.2696 -2.2881
  120MOL   C22638544   8.232   3.305   0.024 -0.1672 -0.0806  0.8024
  120MOL   C22738545   8.119   3.383   8.389 -0.5653 -0.0184 -0.4716
  120MOL   C22838546   7.991   3.330   8.388  0.9953  0.7757 -0.0921
  120MOL   C22938547   7.884   3.411   8.339 -0.0881  0.2523  1.0550
  120MOL  Cl23038548   7.723   3.355   8.360 -0.1000 -0.0333  0.1371
  120MOL   C23138549   7.911   3.533   8.281 -0.0751  0.1564 -0.3460
  120MOL   C23238550   8.035   3.591   8.286  0.2873  0.1421  0.0526
  120MOL   C23338551   8.141   3.518   8.342  0.1729  1.0381 -0.1397
  120MOL   C23438552   8.195   3.290   0.177  0.3469  0.8901 -0.4604
  120MOL   H23538553   8.328   3.355   0.018 -0.1766 -0.0968  0.5369
  120MOL   H23638554   7.968   3.238   0.005 -1.4987  0.4243 -1.7311
  120MOL   H23738555   7.830   3.589   8.236 -1.0580  0.5060  1.8030
  120MOL   H23838556   8.052   3.694   8.258 -0.0307  0.7137  1.9418
  120MOL   H23938557   8.240   3.559   8.352  0.6069 -0.4343  1.8361
  120MOL   H24038558   8.163   3.385   0.222  0.8144  0.3354  1.0699
  120MOL   H24138559   8.100   3.239   0.190  1.9159 -1.6403  1.4941
  120MOL   C24238560   8.303   3.211   0.262 -0.2422  0.5867  0.2872
  120MOL   C24338561   0.010   3.269   0.249 -0.0627 -0.1678  0.5778
  120MOL   C24438562   0.034   3.402   0.293  0.0082  0.6274  0.2326
  120MOL   C24538563   0.156   3.462   0.262 -1.2550  0.4236 -0.5828
  120MOL  Cl24638564   0.184   3.630   0.305  0.4655  0.1683 -0.0493
  120MOL   C24738565   0.261   3.388   0.200  0.1035  0.7139  0.6988
  120MOL   C24838566   0.235   3.254   0.161  0.1746 -0.4838 -0.1501
  120MOL   C24938567   0.112   3.195   0.182  0.1403 -0.1489  0.4215
  120MOL   C25038568   8.248   3.197   0.407 -0.4231  0.3674 -0.2053
  120MOL   H25138569   8.315   3.111   0.219 -0.2246  0.8851 -0.4056
  120MOL   H25238570   8.400   3.459   0.354  0.2228  0.9321  0.1942
  120MOL   H25338571   0.356   3.435   0.180 -0.3997  1.4277 -0.0746
  120MOL   H25438572   0.310   3.199   0.105 -0.3129  3.0832 -4.5671
  120MOL   H25538573   0.080   3.102   0.137 -2.1083  0.4592  0.6852
  120MOL   H25638574   8.242   3.300   0.443 -0.9016  1.1887 -2.5457
  120MOL   H25738575   8.152   3.146   0.399  0.1731 -0.3915 -3.1965
  120MOL   C25838576   8.342   3.114   0.503 -0.0988 -0.6378  0.2206
  120MOL   C25938577   8.396   3.207   0.607 -0.2179  0.2297 -0.0141
  120MOL   C26038578   8.314   3.242   0.720  0.8076  0.2523  0.1600
  120MOL   C26138579   8.360   3.316   0.832 -0.1275 -0.1863  0.0151
  120MOL  Cl26238580   8.268   3.347   0.977  0.2841  0.0498  0.1874
  120MOL   C26338581   0.059   3.374   0.824  0.0615  0.3151  0.0159
  120MOL   C26438582   0.141   3.342   0.711  0.2026  0.1164  0.4078
  120MOL   C26538583   0.092   3.263   0.601  0.2438  0.3122 -0.0698
  120MOL   C26638584   8.290   2.984   0.560  0.4626  0.2790  0.6718
  120MOL   H26738585   8.421   3.074   0.440 -0.0188 -1.1277  0.6266
  120MOL   H26838586   8.213   3.206   0.731  0.4112  1.4898  0.6915
  120MOL   H26938587   0.089   3.456   0.887 -0.3215 -0.2217  0.9014
  120MOL   H27038588   0.238   3.387   0.701 -0.3332  1.2234  0.1725
  120MOL   H27138589   0.145   3.228   0.514 -1.5433  0.5805 -1.2968
  120MOL   H27238590   8.208   3.028   0.617 -0.0581 -0.7832  0.7575
  120MOL   H27338591   8.261   2.916   0.480  0.5984  1.4549 -0.3744
  120MOL   C27438592   8.391   2.896   0.646 -0.3903 -0.2452 -0.3978
  120MOL   C27538593   8.339   2.864   0.784 -0.0391 -1.2948 -0.4445
  120MOL   C27638594   8.240   2.763   0.785  0.7681  0.0755 -0.3775
  120MOL   C27738595   8.191   2.730   0.915 -0.8545 -0.4249  0.8507
  120MOL  Cl27838596   8.038   2.645   0.932 -0.3906 -0.1006  0.1489
  120MOL   C27938597   8.254   2.769   1.030  0.5627 -1.1706 -0.2970
  120MOL   C28038598   8.358   2.866   1.027 -0.5074 -0.2929  0.9696
  120MOL   C28138599   8.394   2.921   0.901  0.3031  0.6473  0.1544
  120MOL   C28238600   0.018   2.772   0.574 -0.2896 -0.4805 -0.1862
  120MOL   H28338601   0.045   2.957   0.661 -1.7378  2.0099 -1.2862
  120MOL   H28438602   8.206   2.717   0.693  0.9579 -2.7529  0.9251
  120MOL   H28538603   8.219   2.732   1.125 -1.3245 -0.5593 -0.7234
  120MOL   H28638604   8.409   2.908   1.112  0.8757  1.3600 -0.6340
  120MOL   H28738605   0.017   3.011   0.889 -0.8318  1.1378 -1.7936
  120MOL   H28838606   8.374   2.698   0.561 -3.1333  2.3673  0.3024
  120MOL   H28938607   0.042   2.798   0.471 -1.2814 -0.3763 -0.3939
  120MOL   C29038608   0.152   2.710   0.623  0.0117  0.2146  0.7113
  120MOL   C29138609   0.138   2.655   0.765 -0.7346  0.5414  0.2021
  120MOL   C29238610   0.039   2.562   0.800  1.2636 -0.7301  0.5226
  120MOL   C29338611   0.041   2.512   0.928 -0.1889 -0.5431  0.0213
  120MOL  Cl29438612   8.349   2.406   0.982 -0.0161 -0.2854 -0.3949
  120MOL   C29538613   0.143   2.537   1.019 -0.1524  0.2012 -0.9349
  120MOL   C29638614   0.254   2.613   0.969  0.5061 -0.6382  0.4963
  120MOL   C29738615   0.244   2.679   0.850  0.3535  0.4184  0.8839
  120MOL   C29838616   0.212   2.607   0.522 -0.5155  0.1724 -0.3386
  120MOL   H29938617   0.223   2.793   0.631  1.1739 -0.6109 -0.6228
  120MOL   H30038618   8.390   2.543   0.734  0.6983  3.0744  0.0168
  120MOL   H30138619   0.142   2.500   1.120  0.0048  0.1801 -0.9411
  120MOL   H30238620   0.342   2.628   1.030  0.6471 -3.1718  0.9666
  120MOL   H30338621   0.322   2.745   0.814 -0.2276  1.3817  1.3651
  120MOL   H30438622   0.295   2.552   0.566  1.1015  2.3553 -0.5545
  120MOL   H30538623   0.126   2.545   0.496 -0.4408 -0.1300  0.1255
  120MOL   C30638624   0.278   2.662   0.398 -0.4376 -0.7123  0.0435
  120MOL   C30738625   0.380   2.772   0.426 -0.6607 -0.0650 -0.0909
  120MOL   C30838626   0.349   2.910   0.417  0.5892 -0.2567  0.9184
  120MOL   C30938627   0.446   3.005   0.442 -0.0027  0.0380 -0.4154
  120MOL  Cl31038628   0.417   3.183   0.437  0.4541  0.2851 -0.2799
  120MOL   C31138629   0.572   2.966   0.491 -0.2227 -0.5379  0.4434
  120MOL   C31238630   0.602   2.827   0.498 -0.4693  0.5996  0.5667
  120MOL   C31338631   0.507   2.730   0.466  0.0762 -0.7575  0.5127
  120MOL   C31438632   0.335   2.549   0.307  0.1690  0.6459 -0.2585
  120MOL   H31538633   0.204   2.704   0.331 -1.4022 -0.7521  1.0730
  120MOL   H31638634   0.250   2.939   0.386  0.2706 -1.3735  0.8728
  120MOL   H31738635   0.637   3.047   0.522 -1.1317  0.2283  0.3435
  120MOL   H31838636   0.700   2.796   0.534  0.1879  1.5668 -0.3502
  120MOL   H31938637   0.527   2.624   0.476  2.0266 -0.4744 -0.2194
  120MOL   H32038638   0.254   2.482   0.278  0.2640  0.7825 -0.8359
  120MOL   H32138639   0.367   2.581   0.208  2.1315  1.6653  0.6669
  120MOL   H32238640   0.419   2.491   0.347  0.2108  1.3520  0.6950
  121MOL     C138641   2.788   0.770   2.568 -0.4667 -1.0035 -0.5186
  121MOL     C238642   2.808   0.901   2.494 -0.2500 -0.0254 -0.2088
  121MOL     C338643   2.841   0.896   2.365  0.5714 -0.8556  0.3815
  121MOL     C438644   2.853   1.015   2.291  0.3789  0.2615  0.4119
  121MOL    Cl538645   2.881   1.003   2.126 -0.2164  0.1031 -0.1936
  121MOL     C638646   2.833   1.139   2.356  0.3504  0.5360 -0.4555
  121MOL     C738647   2.804   1.141   2.496 -0.5265 -0.1386 -0.2927
  121MOL     C838648   2.795   1.018   2.564  0.0899 -0.0416  0.1486
  121MOL     C938649   2.923   0.713   2.617  0.7530  0.3235 -0.6453
  121MOL    H1038650   2.745   0.701   2.496 -0.8175 -0.4802 -0.8133
  121MOL    H1138651   2.864   0.801   2.318 -1.3764 -0.8377 -0.6559
  121MOL    H1238652   2.846   1.237   2.314 -0.6135  0.1597 -1.6491
  121MOL    H1338653   2.804   1.237   2.546 -0.0826 -0.1103 -0.3447
  121MOL    H1438654   2.785   1.015   2.672  1.0252  1.1778  0.2853
  121MOL    H1538655   2.961   0.648   2.539  0.1868  0.4593 -1.0360
  121MOL    H1638656   2.993   0.792   2.645 -0.5769  1.3946 -0.2953
  121MOL    H1738657   2.719   0.784   2.651 -0.8428  2.1216 -1.2847
  121MOL    C1838658   2.897   0.625   2.746  0.1887  0.0348  0.2339
  121MOL    C1938659   2.802   0.510   2.722  0.1773  0.2733 -0.4632
  121MOL    C2038660   2.685   0.506   2.799 -0.1866 -0.1428  0.0852
  121MOL    C2138661   2.595   0.399   2.782  0.1741  0.6227  0.1699
  121MOL   Cl2238662   2.451   0.383   2.870  0.2533 -0.2191 -0.0022
  121MOL    C2338663   2.614   0.310   2.672 -0.3364 -0.3031  0.5889
  121MOL    C2438664   2.726   0.322   2.585  0.4730  0.2261  0.8887
  121MOL    C2538665   2.826   0.416   2.616  0.4878  0.1977 -0.1716
  121MOL    C2638666   3.027   0.579   2.812 -1.2474 -0.5496 -0.2921
  121MOL    H2738667   2.848   0.691   2.817 -1.6400 -3.0773  1.9771
  121MOL    H2838668   2.660   0.579   2.874  1.5306  0.8750 -0.2876
  121MOL    H2938669   2.540   0.234   2.655  0.7655 -0.7825 -2.4624
  121MOL    H3038670   2.749   0.240   2.518  0.1222 -1.1082  2.3866
  121MOL    H3138671   2.917   0.414   2.558  0.3970  0.5778 -0.3312
  121MOL    H3238672   2.984   0.497   2.869  1.0987 -1.9572 -0.5032
  121MOL    H3338673   3.086   0.532   2.733  1.3671 -2.3902  2.6524
  121MOL    C3438674   3.112   0.680   2.898 -0.3167  0.5971  0.3539
  121MOL    C3538675   3.026   0.739   3.014  0.1996  0.0799  0.1584
  121MOL    C3638676   3.079   0.852   3.081  0.6473 -0.0649  0.1587
  121MOL    C3738677   3.021   0.900   3.202 -0.9858  0.4866  0.5144
  121MOL   Cl3838678   3.098   1.030   3.290  0.0780 -0.1642  0.6044
  121MOL    C3938679   2.902   0.844   3.251 -0.2538 -0.7333 -0.2943
  121MOL    C4038680   2.854   0.731   3.180  0.0344  0.1787  0.3854
  121MOL    C4138681   2.912   0.676   3.066  0.0684 -0.1187  0.3541
  121MOL    C4238682   3.227   0.607   2.972 -0.1819 -0.3984  0.1470
  121MOL    H4338683   3.161   0.762   2.844 -1.2407  1.6607  1.0984
  121MOL    H4438684   3.161   0.909   3.038  0.8944 -0.8291 -0.3900
  121MOL    H4538685   2.863   0.877   3.346  1.2377  0.1245  0.0348
  121MOL    H4638686   2.758   0.693   3.212 -0.3912  0.6792 -0.2727
  121MOL    H4738687   2.866   0.591   3.018 -0.7451  0.9378 -0.7586
  121MOL    H4838688   3.259   0.658   3.063 -0.6070 -1.3549  0.8289
  121MOL    H4938689   3.173   0.526   3.020 -0.3025  0.0267  0.7232
  121MOL    C5038690   3.344   0.563   2.882 -0.0539  0.3751 -0.0137
  121MOL    C5138691   3.429   0.671   2.822 -0.2748 -0.1076 -0.7869
  121MOL    C5238692   3.504   0.637   2.705 -0.2696  0.1256 -0.2297
  121MOL    C5338693   3.591   0.729   2.651 -0.6885  0.3287 -0.4861
  121MOL   Cl5438694   3.670   0.699   2.501  0.1615  0.0581 -0.3197
  121MOL    C5538695   3.609   0.853   2.711  0.3974 -0.4639 -0.2351
  121MOL    C5638696   3.539   0.882   2.828  0.3697 -0.2336  0.1441
  121MOL    C5738697   3.442   0.791   2.885 -0.8732 -0.4068 -0.0551
  121MOL    C5838698   3.422   0.452   2.948 -0.2895 -0.1467  0.3407
  121MOL    H5938699   3.291   0.519   2.797 -0.7696 -1.0135  1.1233
  121MOL    H6038700   3.490   0.541   2.658 -1.3221 -0.0239  0.3644
  121MOL    H6138701   3.681   0.926   2.678  0.9055 -0.9477 -0.2031
  121MOL    H6238702   3.539   0.986   2.857 -2.2715 -0.3103  0.5358
  121MOL    H6338703   3.384   0.831   2.967 -2.3773  2.1008 -2.2515
  121MOL    H6438704   3.362   0.369   2.985 -1.9306  1.4293  1.2784
  121MOL    H6538705   3.469   0.403   2.863  1.0879  0.7589  0.5584
  121MOL    C6638706   3.544   0.492   3.041 -0.1484  0.0878 -0.8976
  121MOL    C6738707   3.487   0.542   3.176 -0.8458  0.4988 -0.3162
  121MOL    C6838708   3.400   0.463   3.259  0.3349 -0.1119  0.0970
  121MOL    C6938709   3.331   0.521   3.361 -0.3534  0.3208  0.7248
  121MOL   Cl7038710   3.224   0.422   3.453  0.8616  0.3995 -0.1621
  121MOL    C7138711   3.345   0.655   3.387  0.4837 -0.2960 -0.4509
  121MOL    C7238712   3.435   0.737   3.318  0.1455 -0.3214 -0.2099
  121MOL    C7338713   3.505   0.682   3.208 -0.6987  0.3128 -0.2750
  121MOL    C7438714   3.645   0.373   3.050  0.5646 -0.5721  0.4472
  121MOL    H7538715   3.608   0.573   3.005  0.4354 -0.6733 -1.5753
  121MOL    H7638716   3.384   0.359   3.236 -0.2848  0.2280 -1.0399
  121MOL    H7738717   3.301   0.696   3.477 -0.6358 -0.8870 -0.7175
  121MOL    H7838718   3.454   0.841   3.341 -1.4496  0.2583 -1.4708
  121MOL    H7938719   3.564   0.743   3.141  0.2459  0.8458  1.0232
  121MOL    H8038720   3.593   0.280   3.072 -0.1244 -0.6050 -1.2572
  121MOL    H8138721   3.694   0.363   2.953  0.1672 -2.9460  0.4604
  121MOL    C8238722   3.749   0.378   3.160  0.9021 -0.3183  0.2288
  121MOL    C8338723   3.833   0.252   3.162 -0.4457 -0.3439 -0.2563
  121MOL    C8438724   3.814   0.160   3.271 -0.1382 -0.6084 -0.2123
  121MOL    C8538725   3.900   0.048   3.283 -0.1269 -0.3346  0.2699
  121MOL   Cl8638726   3.871   8.361   3.399  0.2031 -0.1021  0.2957
  121MOL    C8738727   4.011   0.040   3.197  0.2195  0.7477  0.1759
  121MOL    C8838728   4.037   0.133   3.099 -0.4952 -0.5843  0.0251
  121MOL    C8938729   3.938   0.230   3.068 -0.0202 -0.6218 -0.4827
  121MOL    C9038730   3.831   0.515   3.165  0.6449 -0.0112 -0.3565
  121MOL    H9138731   3.691   0.378   3.252 -0.0303  0.3771 -0.3529
  121MOL    H9238732   3.739   0.182   3.347  0.1808  0.3312 -0.1607
  121MOL    H9338733   4.076   8.390   3.209 -1.3187 -0.6780 -1.3731
  121MOL    H9438734   4.119   0.123   3.029 -1.0964  1.7230 -1.0522
  121MOL    H9538735   3.961   0.299   2.988 -1.3598  1.1016  0.5826
  121MOL    H9638736   3.879   0.540   3.070 -1.2323  1.5607 -0.9259
  121MOL    H9738737   3.756   0.594   3.175  0.2006  0.2348 -4.5042
  121MOL    C9838738   3.931   0.522   3.283  0.7265 -1.0134 -0.0622
  121MOL    C9938739   4.065   0.570   3.233  0.3094  0.0373  0.1905
  121MOL   C10038740   4.176   0.479   3.234  0.6848 -0.0610 -0.2574
  121MOL   C10138741   4.304   0.526   3.200 -0.3914 -0.1287  0.5512
  121MOL  Cl10238742   4.429   0.405   3.188  0.1630  0.2556  0.2027
  121MOL   C10338743   4.321   0.665   3.162  0.7048  0.3277  0.3817
  121MOL   C10438744   4.212   0.749   3.160 -0.5206  0.1100 -0.0376
  121MOL   C10538745   4.085   0.703   3.190 -1.0470  0.0525  0.5124
  121MOL   C10638746   3.885   0.625   3.390 -0.2432  0.0136 -0.0304
  121MOL   H10738747   3.940   0.422   3.326  0.1742 -0.4401  1.4514
  121MOL   H10838748   4.165   0.378   3.271  0.4983  0.6185  1.6266
  121MOL   H10938749   4.417   0.699   3.125  0.8056 -0.9286 -0.5609
  121MOL   H11038750   4.218   0.849   3.121 -1.0827 -0.5166 -1.8039
  121MOL   H11138751   4.009   0.779   3.186  1.7794  3.0514  1.2048
  121MOL   H11238752   3.969   0.644   3.457 -0.0991 -1.9648  0.3791
  121MOL   H11338753   3.860   0.720   3.343 -2.7168 -1.0299 -0.9204
  121MOL   C11438754   3.769   0.573   3.485  0.6042  0.7004  0.1100
  121MOL   C11538755   3.823   0.454   3.561  0.7057  0.2077  0.1569
  121MOL   C11638756   3.727   0.355   3.576  0.0157 -0.5359 -0.1006
  121MOL   C11738757   3.763   0.237   3.648  0.1547 -0.0793 -0.0548
  121MOL  Cl11838758   3.637   0.126   3.678 -0.3553 -0.0067  0.1036
  121MOL   C11938759   3.880   0.228   3.720 -0.4419  0.1195 -0.5289
  121MOL   C12038760   3.968   0.332   3.712 -0.2528 -1.0273  0.0873
  121MOL   C12138761   3.946   0.442   3.632 -0.4991 -0.5297  0.4384
  121MOL   C12238762   3.707   0.686   3.570  0.2734  0.7778  0.3852
  121MOL   H12338763   3.692   0.527   3.423 -0.1467 -2.1895  3.0207
  121MOL   H12438764   3.633   0.361   3.524  1.1181 -0.1890 -2.1241
  121MOL   H12538765   3.906   0.136   3.771  1.4241  0.0066 -1.6329
  121MOL   H12638766   4.065   0.330   3.759  0.5080 -3.6937 -1.5006
  121MOL   H12738767   4.027   0.512   3.615 -0.0030 -0.4816  2.8812
  121MOL   H12838768   3.792   0.753   3.575  1.0105 -0.2669  2.1592
  121MOL   H12938769   3.647   0.747   3.501 -1.2872  0.5659  1.5247
  121MOL   C13038770   3.646   0.669   3.718  0.0064 -0.8747  0.4166
  121MOL   C13138771   3.612   0.814   3.766  0.1842 -0.0582  0.1191
  121MOL   C13238772   3.657   0.854   3.892 -0.1308 -0.1980 -0.4950
  121MOL   C13338773   3.626   0.984   3.938 -0.1214 -0.1267  0.0513
  121MOL  Cl13438774   3.681   1.042   4.087  0.1846  0.2805  0.4155
  121MOL   C13538775   3.532   1.057   3.869  0.1203  0.1352  0.4843
  121MOL   C13638776   3.492   1.024   3.737  0.7922 -0.1252 -0.1181
  121MOL   C13738777   3.528   0.898   3.687  0.2281 -0.3439  0.9694
  121MOL   C13838778   3.510   0.591   3.720  0.1966  0.2334 -0.0797
  121MOL   H13938779   3.719   0.626   3.786 -0.3628  1.7654  2.5522
  121MOL   H14038780   3.700   0.784   3.962 -0.0220 -0.6314 -0.9922
  121MOL   H14138781   3.507   1.157   3.900  2.1767  1.6186 -2.3705
  121MOL   H14238782   3.422   1.088   3.686 -1.0728 -1.6730  0.4745
  121MOL   H14338783   3.495   0.867   3.589  0.2843  0.4161  0.7080
  121MOL   H14438784   3.435   0.649   3.665 -0.0179  0.0668  0.0352
  121MOL   H14538785   3.520   0.510   3.648  1.0744  0.6890 -0.4833
  121MOL   C14638786   3.470   0.535   3.857 -0.2710  0.1307 -0.1495
  121MOL   C14738787   3.327   0.566   3.883 -1.1778  0.1316 -0.0473
  121MOL   C14838788   3.232   0.479   3.830  0.7412 -0.6379  0.1936
  121MOL   C14938789   3.099   0.505   3.859  0.1073 -0.2280  0.3114
  121MOL  Cl15038790   2.970   0.395   3.823 -0.0915 -0.0728  0.1659
  121MOL   C15138791   3.055   0.618   3.927 -0.1585 -0.8637  0.2499
  121MOL   C15238792   3.151   0.715   3.965  0.2622  0.1735 -0.6152
  121MOL   C15338793   3.291   0.686   3.949  0.8637 -0.0062  0.3217
  121MOL   C15438794   3.510   0.383   3.862  0.0254  0.8606  0.4998
  121MOL   H15538795   3.523   0.588   3.936 -2.9771  1.5851  0.7439
  121MOL   H15638796   3.254   0.387   3.779 -0.8753 -0.3732 -1.0153
  121MOL   H15738797   2.950   0.633   3.947 -0.1405  0.3744 -0.5138
  121MOL   H15838798   3.114   0.805   4.012 -1.9857 -2.0954  2.1415
  121MOL   H15938799   3.366   0.754   3.988  0.2598  0.3889  0.8128
  121MOL   H16038800   3.440   0.326   3.801 -1.5143  2.7407  0.4342
  121MOL   H16138801   3.609   0.371   3.819  0.5893  2.1028  1.3990
  121MOL   C16238802   3.497   0.320   4.005  0.2827  0.2860  0.0357
  121MOL   C16338803   3.468   0.170   3.991 -1.0443  0.2218 -0.0571
  121MOL   C16438804   3.332   0.127   3.986  0.2782  0.7050  0.0587
  121MOL   C16538805   3.303   8.429   3.959  0.2327 -0.5056 -0.4713
  121MOL  Cl16638806   3.137   8.399   3.949  0.3275  0.0916  0.2343
  121MOL   C16738807   3.401   8.330   3.941 -0.2627 -0.1559  0.1186
  121MOL   C16838808   3.532   8.374   3.944 -0.5253  0.5649 -0.1717
  121MOL   C16938809   3.563   0.068   3.979  0.3648 -0.6953  0.2895
  121MOL   C17038810   3.618   0.356   4.108  0.8361  0.0154 -0.4687
  121MOL   H17138811   3.396   0.353   4.031  1.0248  0.4654  2.8648
  121MOL   H17238812   3.252   0.199   3.986  0.1363  0.5670 -1.9115
  121MOL   H17338813   3.369   8.230   3.918  2.0375 -0.9407  0.1104
  121MOL   H17438814   3.606   8.298   3.924  0.2365  0.6974  1.9533
  121MOL   H17538815   3.666   0.103   3.980  0.1219  0.0228  1.7332
  121MOL   H17638816   3.692   0.276   4.112  2.3660  1.4942  2.9980
  121MOL   H17738817   3.656   0.449   4.065 -1.3469  1.1698  0.0287
  121MOL   C17838818   3.556   0.380   4.246 -0.0900  0.1117 -0.0581
  121MOL   C17938819   3.509   0.254   4.327 -0.6765  0.1518  0.2708
  121MOL   C18038820   3.376   0.250   4.376 -0.2310  0.2455  0.4048
  121MOL   C18138821   3.333   0.134   4.443  0.4957  0.1002 -0.4212
  121MOL  Cl18238822   3.168   0.114   4.479 -0.5078  0.2360  0.3517
  121MOL   C18338823   3.420   0.030   4.471  0.3627 -0.3264 -0.7524
  121MOL   C18438824   3.556   0.033   4.425  0.6107  0.5023 -0.0428
  121MOL   C18538825   3.599   0.148   4.358  0.7203 -0.4703  0.1728
  121MOL   C18638826   3.646   0.468   4.333  0.0045  0.1098  0.0192
  121MOL   H18738827   3.472   0.440   4.211  0.8269  0.6794 -1.3260
  121MOL   H18838828   3.318   0.341   4.374  1.3110  1.2396 -1.2578
  121MOL   H18938829   3.385   8.378   4.525  0.8497  0.4355  0.8336
  121MOL   H19038830   3.625   8.386   4.434  2.4440  2.0045 -0.2190
  121MOL   H19138831   3.702   0.153   4.325  0.2927 -0.0237 -1.1412
  121MOL   H19238832   3.723   0.409   4.382 -1.0006  2.6310  4.9696
  121MOL   H19338833   3.690   0.541   4.265  1.0091  0.1421  0.6897
  121MOL   C19438834   3.572   0.543   4.440  0.1649 -0.1149  0.2275
  121MOL   C19538835   3.665   0.634   4.518 -0.1727  0.1875 -0.0524
  121MOL   C19638836   3.709   0.744   4.452 -0.3387 -0.7048  0.7439
  121MOL   C19738837   3.782   0.845   4.518 -0.4301 -0.0868  0.9259
  121MOL  Cl19838838   3.847   0.972   4.422 -0.1324  0.1345 -0.0641
  121MOL   C19938839   3.822   0.832   4.648  0.9899 -0.1577 -0.8104
  121MOL   C20038840   3.767   0.724   4.724  0.2704  0.4209  0.5071
  121MOL   C20138841   3.689   0.622   4.658 -0.5125  0.8012  0.0332
  121MOL   C20238842   3.445   0.621   4.397  0.0806  0.2524 -0.0708
  121MOL   H20338843   3.537   0.469   4.512 -0.9581  1.7726  1.6540
  121MOL   H20438844   3.693   0.763   4.347 -0.1862 -0.0380  0.8384
  121MOL   H20538845   3.885   0.904   4.700 -0.7618  0.0136  1.1416
  121MOL   H20638846   3.806   0.708   4.824  0.8623  1.8859  0.5159
  121MOL   H20738847   3.643   0.537   4.705 -2.2664  0.6056 -2.0210
  121MOL   H20838848   3.471   0.711   4.342  0.0295  0.7768  0.7610
  121MOL   H20938849   3.375   0.573   4.329  0.6839  0.4776 -0.8702
  121MOL   C21038850   3.359   0.671   4.522  0.1857  0.2927 -0.3415
  121MOL   C21138851   3.304   0.811   4.492  0.0294 -0.2083 -0.0823
  121MOL   C21238852   3.384   0.924   4.524  0.0985 -0.4015  0.0794
  121MOL   C21338853   3.332   1.054   4.505  0.0605 -0.4438  0.4956
  121MOL  Cl21438854   3.416   1.194   4.569  0.3360 -0.2460 -0.4763
  121MOL   C21538855   3.209   1.068   4.442  0.0207 -0.1819 -0.2210
  121MOL   C21638856   3.136   0.953   4.406  0.6167 -1.3494 -0.1763
  121MOL   C21738857   3.174   0.826   4.434 -0.1567  0.4704 -0.2221
  121MOL   C21838858   3.252   0.563   4.560  0.0829  0.0526 -0.2962
  121MOL   H21938859   3.420   0.690   4.610 -1.6736 -2.0481  1.4995
  121MOL   H22038860   3.483   0.908   4.564  0.3485  0.1828 -0.3031
  121MOL   H22138861   3.183   1.172   4.430  0.3639 -0.2424 -1.5846
  121MOL   H22238862   3.046   0.972   4.349  0.9605  1.7272  0.2033
  121MOL   H22338863   3.105   0.745   4.417 -0.5892  0.6479  0.6726
  121MOL   H22438864   3.191   0.551   4.470  1.0057  1.6394 -1.1611
  121MOL   H22538865   3.306   0.471   4.584  1.8034  0.7379 -1.3847
  121MOL   C22638866   3.169   0.614   4.684 -0.0995  0.3050 -0.0846
  121MOL   C22738867   3.028   0.548   4.685 -0.0016  0.3059 -0.1066
  121MOL   C22838868   2.919   0.635   4.707 -0.4654  0.2290 -0.0301
  121MOL   C22938869   2.786   0.590   4.681 -0.5652 -0.7053 -0.0323
  121MOL  Cl23038870   2.651   0.697   4.706 -0.1763  0.0358  0.3614
  121MOL   C23138871   2.769   0.451   4.656  0.4142 -0.2695  0.4152
  121MOL   C23238872   2.880   0.367   4.643  0.8558  0.1104  0.1630
  121MOL   C23338873   3.012   0.411   4.656 -0.3298 -0.4736 -0.0981
  121MOL   C23438874   3.250   0.575   4.810 -0.2887  0.3516  0.4916
  121MOL   H23538875   3.160   0.723   4.688  3.5414  0.7028 -0.9322
  121MOL   H23638876   2.941   0.734   4.744 -0.6589  0.3559 -0.2585
  121MOL   H23738877   2.680   0.394   4.630  0.8680 -1.1809  0.8445
  121MOL   H23838878   2.856   0.268   4.609 -2.1938  0.8133  0.0921
  121MOL   H23938879   3.097   0.347   4.636  0.3944 -0.2569  2.0748
  121MOL   H24038880   3.280   0.470   4.810  1.1972  0.7628  0.6209
  121MOL   H24138881   3.341   0.634   4.805  0.2804 -0.6522 -1.4314
  121MOL   C24238882   3.190   0.604   4.953  0.1908 -0.1769 -0.5567
  121MOL   C24338883   3.069   0.512   4.990  0.1428  0.5049 -0.0072
  121MOL   C24438884   2.967   0.566   5.072  0.5467 -0.1551  0.4689
  121MOL   C24538885   2.871   0.488   5.131 -0.1781 -0.0437 -0.3759
  121MOL  Cl24638886   2.773   0.555   5.249 -0.0026  0.3572  0.0453
  121MOL   C24738887   2.866   0.348   5.109 -0.0428 -1.0913  0.4824
  121MOL   C24838888   2.968   0.291   5.027  0.0979  0.0637  0.8584
  121MOL   C24938889   3.062   0.374   4.965  0.2916  0.2404 -0.4413
  121MOL   C25038890   3.295   0.588   5.066  0.3492 -0.4949 -0.3597
  121MOL   H25138891   3.158   0.708   4.945  1.2581  0.0032 -2.8236
  121MOL   H25238892   2.971   0.671   5.095  1.6245 -0.2423  0.7200
  121MOL   H25338893   2.798   0.285   5.164 -1.1034  0.7070  1.2979
  121MOL   H25438894   2.978   0.183   5.022  1.0859  0.1612  0.7307
  121MOL   H25538895   3.137   0.332   4.899 -1.9110 -0.9216 -2.2608
  121MOL   H25638896   3.251   0.594   5.165 -0.4494  3.7755 -0.8977
  121MOL   H25738897   3.337   0.487   5.060  0.8764 -0.3423  0.8239
  121MOL   C25838898   3.424   0.677   5.061 -1.1801  0.5824 -0.6167
  121MOL   C25938899   3.393   0.816   5.005 -0.2346  0.9594 -0.2694
  121MOL   C26038900   3.308   0.907   5.075  0.1893  0.1346  0.4206
  121MOL   C26138901   3.313   1.042   5.034  0.4931 -0.3016 -0.5810
  121MOL  Cl26238902   3.204   1.159   5.113 -0.1308  0.1347 -0.3066
  121MOL   C26338903   3.383   1.081   4.915 -0.0287  0.2470  0.1034
  121MOL   C26438904   3.466   0.992   4.844  0.7908 -0.7165  0.2097
  121MOL   C26538905   3.462   0.863   4.894 -0.1755 -0.0668 -0.2525
  121MOL   C26638906   3.494   0.688   5.196 -0.6685  0.5365  0.6590
  121MOL   H26738907   3.498   0.642   4.989 -0.5531  0.9694 -0.1589
  121MOL   H26838908   3.254   0.880   5.164 -0.4275 -1.3147 -0.3822
  121MOL   H26938909   3.382   1.183   4.880  0.9468  0.1504 -0.2293
  121MOL   H27038910   3.530   1.008   4.758  1.2980 -1.9270  0.3406
  121MOL   H27138911   3.528   0.790   4.851  1.9037  1.0245  0.9887
  121MOL   H27238912   3.422   0.713   5.273 -0.1034 -1.0031  1.7127
  121MOL   H27338913   3.538   0.591   5.220  0.0420  1.1178  1.7701
  121MOL   C27438914   3.606   0.793   5.207 -0.6300  0.1635  0.4240
  121MOL   C27538915   3.635   0.812   5.355 -0.3493  0.2324 -0.7728
  121MOL   C27638916   3.687   0.704   5.430 -0.2764  0.0013 -0.6904
  121MOL   C27738917   3.707   0.712   5.570  0.1591 -0.0736  0.2454
  121MOL  Cl27838918   3.768   0.572   5.654 -0.1489  0.2965  0.0201
  121MOL   C27938919   3.671   0.833   5.642 -1.1648  0.5589 -0.4704
  121MOL   C28038920   3.626   0.939   5.567  0.4005 -0.2239  0.1143
  121MOL   C28138921   3.602   0.930   5.428 -0.5421  0.0684 -0.0774
  121MOL   C28238922   3.730   0.761   5.123 -0.6789 -0.1187 -0.4994
  121MOL   H28338923   3.566   0.889   5.175 -2.2631 -1.1100 -1.4849
  121MOL   H28438924   3.717   0.608   5.389  3.2872 -0.0388  1.7833
  121MOL   H28538925   3.688   0.831   5.748  2.0037  0.7395 -0.9250
  121MOL   H28638926   3.602   1.039   5.600 -0.3462  0.5088 -2.5491
  121MOL   H28738927   3.564   1.016   5.374 -1.0876 -0.8626 -1.1999
  121MOL   H28838928   3.758   0.659   5.149 -2.2159 -0.2684  0.6706
  121MOL   H28938929   3.697   0.747   5.020 -0.9687 -0.6434 -0.3370
  121MOL   C29038930   3.839   0.875   5.122 -0.6405  0.1082  0.6241
  121MOL   C29138931   3.977   0.814   5.105  0.2331  0.3187  0.0264
  121MOL   C29238932   4.046   0.755   5.213 -0.6672 -0.6248 -0.2623
  121MOL   C29338933   4.170   0.692   5.190  0.0055 -1.3119 -0.1045
  121MOL  Cl29438934   4.257   0.605   5.314  0.4696  0.0888 -0.2068
  121MOL   C29538935   4.229   0.704   5.060 -0.2951 -0.6639 -0.8327
  121MOL   C29638936   4.167   0.758   4.949 -0.1496  0.1146  0.3850
  121MOL   C29738937   4.041   0.805   4.974  0.3617 -0.0070  0.7241
  121MOL   C29838938   3.791   0.987   5.036  0.6088 -0.0157  0.7506
  121MOL   H29938939   3.852   0.914   5.223  2.2928  2.1526 -0.4925
  121MOL   H30038940   3.994   0.752   5.308 -1.7155 -0.3812 -0.8166
  121MOL   H30138941   4.332   0.675   5.046  0.7965  1.6233  2.0331
  121MOL   H30238942   4.229   0.773   4.862 -2.7639 -0.1749 -1.5919
  121MOL   H30338943   3.999   0.852   4.886  0.6869 -0.5153  0.2958
  121MOL   H30438944   3.783   0.931   4.943  0.6778 -1.4509  1.5956
  121MOL   H30538945   3.688   1.019   5.053  0.7757  0.7304  0.3823
  121MOL   C30638946   3.892   1.109   5.031 -0.2518  1.1659  0.3681
  121MOL   C30738947   3.884   1.167   4.896 -0.1552 -0.1583 -0.4866
  121MOL   C30838948   3.999   1.176   4.818  0.1197 -0.3343 -0.5455
  121MOL   C30938949   3.985   1.210   4.683 -0.3860 -0.3600  0.1457
  121MOL  Cl31038950   4.128   1.231   4.581  0.0573 -0.0003 -0.2240
  121MOL   C31138951   3.860   1.243   4.628  0.3015  0.2034  0.5519
  121MOL   C31238952   3.746   1.237   4.708 -0.5327 -0.4317 -0.1355
  121MOL   C31338953   3.756   1.197   4.846  0.0919 -0.5071 -0.1046
  121MOL   C31438954   3.871   1.211   5.143  0.0836 -0.0022 -0.1889
  121MOL   H31538955   3.990   1.062   5.041 -0.9138 -0.4657 -0.6111
  121MOL   H31638956   4.097   1.156   4.858 -0.8682 -3.3234  0.5515
  121MOL   H31738957   3.868   1.275   4.525  2.5197 -2.6172 -0.2284
  121MOL   H31838958   3.649   1.267   4.671 -1.1272 -0.7782  1.1287
  121MOL   H31938959   3.668   1.198   4.909  0.9395 -1.8991  1.1329
  121MOL   H32038960   3.770   1.252   5.151 -0.3376 -0.8882 -0.8073
  121MOL   H32138961   3.903   1.172   5.239  1.5285 -0.4372 -0.8307
  121MOL   H32238962   3.922   1.304   5.121  0.8724  0.0807  1.9032
  122MOL     C138963   1.945   1.824   2.164  0.1632 -0.3972  1.0721
  122MOL     C238964   1.935   1.739   2.290  0.3481 -0.5235  0.3784
  122MOL     C338965   1.813   1.691   2.347  0.6228  0.1116 -0.0012
  122MOL     C438966   1.818   1.600   2.461  0.4612 -0.2012  0.3025
  122MOL    Cl538967   1.667   1.551   2.538 -0.2058  0.4104  0.1798
  122MOL     C638968   1.940   1.573   2.519 -0.0966 -0.3738  0.3224
  122MOL     C738969   2.059   1.620   2.458 -0.1491 -0.6071  0.4343
  122MOL     C838970   2.060   1.704   2.344  0.2171  0.2892  0.3200
  122MOL     C938971   1.974   1.743   2.038 -0.1613  0.1712  0.1062
  122MOL    H1038972   2.028   1.894   2.168  1.6002 -1.8511 -1.9488
  122MOL    H1138973   1.713   1.719   2.314  0.5032 -0.4041 -0.0733
  122MOL    H1238974   1.946   1.516   2.611  0.0297  1.0769  1.2242
  122MOL    H1338975   2.155   1.601   2.505 -0.2615  1.7295  1.6593
  122MOL    H1438976   2.154   1.726   2.297  0.0359 -1.3027 -0.8262
  122MOL    H1538977   2.074   1.701   2.044 -0.4209 -0.4588  0.1766
  122MOL    H1638978   1.912   1.654   2.053  0.0192  0.0833  0.3303
  122MOL    H1738979   1.856   1.887   2.157 -0.0781 -0.6087  2.2864
  122MOL    C1838980   1.943   1.812   1.908  0.1839  0.2837 -0.0157
  122MOL    C1938981   2.010   1.945   1.889  0.4429  0.0399 -0.8934
  122MOL    C2038982   2.142   1.947   1.841 -0.0969  0.1184 -0.2336
  122MOL    C2138983   2.209   2.066   1.827 -0.4057  0.0217 -0.4675
  122MOL   Cl2238984   2.363   2.075   1.753 -0.0934 -0.1636 -0.1854
  122MOL    C2338985   2.146   2.186   1.860 -0.4430  0.2097  0.4830
  122MOL    C2438986   2.008   2.184   1.891 -0.6339 -0.6673  0.6775
  122MOL    C2538987   1.943   2.062   1.921  0.2517 -1.1484  0.2234
  122MOL    C2638988   1.958   1.720   1.790 -0.2861 -0.6330 -0.0300
  122MOL    H2738989   1.836   1.827   1.921  0.5328  0.5681  2.9276
  122MOL    H2838990   2.192   1.854   1.817  1.5951  0.4864  1.6806
  122MOL    H2938991   2.209   2.271   1.838 -0.2099 -0.4870 -1.6963
  122MOL    H3038992   1.969   2.284   1.903 -0.0968 -0.3636 -0.0542
  122MOL    H3138993   1.840   2.070   1.954  0.6272  0.2289  1.1033
  122MOL    H3238994   2.060   1.682   1.790  0.2559  0.7735  0.6644
  122MOL    H3338995   1.900   1.632   1.818  0.7907 -1.4001 -0.1912
  122MOL    C3438996   1.926   1.770   1.653  0.1588 -0.0836  0.7130
  122MOL    C3538997   1.942   1.665   1.543 -0.1858  0.4335 -0.0606
  122MOL    C3638998   1.932   1.525   1.566  0.1356 -0.5939 -0.2403
  122MOL    C3738999   1.933   1.436   1.457  0.6288 -0.2090 -0.6981
  122MOL   Cl3839000   1.895   1.268   1.494 -0.0678  0.1646  0.2543
  122MOL    C3939001   1.950   1.484   1.324 -0.4153  0.7214 -0.4787
  122MOL    C4039002   1.966   1.623   1.302 -0.7103 -0.0646 -0.0089
  122MOL    C4139003   1.963   1.716   1.407 -0.3518  0.0754  0.4618
  122MOL    C4239004   1.784   1.834   1.639 -0.5919  0.7437 -0.2109
  122MOL    H4339005   2.010   1.836   1.629  1.6256 -1.5938  1.5458
  122MOL    H4439006   1.903   1.478   1.659 -2.1852  0.5500 -0.3505
  122MOL    H4539007   1.936   1.418   1.240 -2.5006  2.9313 -1.9168
  122MOL    H4639008   1.978   1.662   1.202 -0.5278  1.0445  0.4396
  122MOL    H4739009   1.946   1.819   1.380  0.5435  0.6748  2.1282
  122MOL    H4839010   1.763   1.915   1.709 -1.4099 -0.4348  0.9444
  122MOL    H4939011   1.787   1.893   1.548  2.1333 -2.5679 -2.4314
  122MOL    C5039012   1.667   1.732   1.623 -0.4074 -0.5008  0.2178
  122MOL    C5139013   1.637   1.647   1.748  0.7804  0.1988 -0.2596
  122MOL    C5239014   1.627   1.506   1.736 -0.3803  0.5195 -0.1453
  122MOL    C5339015   1.613   1.424   1.848  0.2472  0.6157 -0.2555
  122MOL   Cl5439016   1.619   1.256   1.819 -0.4104  0.1241 -0.2692
  122MOL    C5539017   1.594   1.478   1.973  0.1687  0.2064  0.1857
  122MOL    C5639018   1.594   1.621   1.987 -0.0857 -0.3420  0.0217
  122MOL    C5739019   1.621   1.705   1.876 -0.1521 -0.4176 -0.3411
  122MOL    C5839020   1.544   1.802   1.572  0.6267 -0.8848  0.3379
  122MOL    H5939021   1.692   1.658   1.546 -1.9476  1.7828 -2.5881
  122MOL    H6039022   1.633   1.459   1.639 -0.2341 -1.1014  0.6216
  122MOL    H6139023   1.584   1.402   2.049  1.9664 -0.9073 -0.6498
  122MOL    H6239024   1.578   1.665   2.084 -0.7758  0.7908 -0.6027
  122MOL    H6339025   1.617   1.813   1.887  0.0742 -0.3942 -0.4767
  122MOL    H6439026   1.500   1.860   1.654  0.5089 -1.8450  0.9676
  122MOL    H6539027   1.569   1.874   1.494  0.6509  1.4707  2.4586
  122MOL    C6639028   1.429   1.716   1.523 -0.5404 -0.1233 -0.9224
  122MOL    C6739029   1.305   1.801   1.479 -0.7697  0.1242 -0.1874
  122MOL    C6839030   1.304   1.866   1.351 -0.2632 -0.0821 -0.1019
  122MOL    C6939031   1.190   1.940   1.321 -0.3451  0.2071 -0.1994
  122MOL   Cl7039032   1.187   2.034   1.176  0.5590 -0.0448 -0.2024
  122MOL    C7139033   1.075   1.942   1.398 -0.7104  0.4444  0.7466
  122MOL    C7239034   1.079   1.874   1.525  0.6898 -0.3533 -1.0774
  122MOL    C7339035   1.191   1.797   1.562  0.6032 -0.4534 -0.1019
  122MOL    C7439036   1.473   1.617   1.410 -0.1731  0.4787 -0.2720
  122MOL    H7539037   1.394   1.646   1.599  0.5197  0.5553  0.2061
  122MOL    H7639038   1.386   1.862   1.281 -1.5941  2.1663 -1.8408
  122MOL    H7739039   0.984   1.990   1.367 -1.6368 -1.9035 -0.2259
  122MOL    H7839040   0.991   1.863   1.587  0.5898  0.0429 -1.1459
  122MOL    H7939041   1.196   1.741   1.654  2.8314 -2.4601 -1.4005
  122MOL    H8039042   1.537   1.671   1.341  0.9912 -0.6304 -0.0768
  122MOL    H8139043   1.540   1.543   1.455 -0.3707  0.5364  0.1238
  122MOL    C8239044   1.368   1.544   1.323 -0.3243  0.6338  0.8335
  122MOL    C8339045   1.440   1.479   1.209 -0.0846 -0.3511  0.0237
  122MOL    C8439046   1.529   1.371   1.232 -0.8895  0.7363  0.7322
  122MOL    C8539047   1.588   1.310   1.120  0.7801  0.2610  0.8308
  122MOL   Cl8639048   1.682   1.168   1.156  0.5351  0.0110 -0.0088
  122MOL    C8739049   1.558   1.353   0.987  0.6679 -0.3244 -0.1912
  122MOL    C8839050   1.470   1.455   0.962 -0.3616  0.0827  0.1760
  122MOL    C8939051   1.408   1.520   1.076  0.4836 -0.2439 -0.5743
  122MOL    C9039052   1.271   1.446   1.391  0.3799  0.1971  0.0376
  122MOL    H9139053   1.306   1.615   1.269 -0.9922 -0.8279 -0.3553
  122MOL    H9239054   1.542   1.335   1.333  1.3477  0.7171  0.4647
  122MOL    H9339055   1.597   1.304   0.899  0.0503  0.1294 -0.7226
  122MOL    H9439056   1.448   1.474   0.858  0.1544 -1.1626 -0.1626
  122MOL    H9539057   1.350   1.608   1.052  0.4781 -0.1781 -0.3120
  122MOL    H9639058   1.331   1.372   1.444 -1.0930  0.5583  2.2906
  122MOL    H9739059   1.213   1.495   1.470 -1.8868 -1.0782 -0.7967
  122MOL    C9839060   1.168   1.362   1.304 -0.2045  0.3531 -0.4821
  122MOL    C9939061   1.192   1.209   1.324 -0.1224  0.6373 -0.2598
  122MOL   C10039062   1.143   1.147   1.443  0.9119 -0.0931 -0.1751
  122MOL   C10139063   1.140   1.004   1.451 -0.5335 -0.3402  0.3910
  122MOL  Cl10239064   1.070   0.925   1.588  0.1530  0.2459 -0.1389
  122MOL   C10339065   1.206   0.931   1.352 -0.3581 -0.0309 -0.5429
  122MOL   C10439066   1.260   0.993   1.241  0.3158 -0.3739  0.8719
  122MOL   C10539067   1.251   1.132   1.222 -0.8832 -0.1608 -0.2974
  122MOL   C10639068   1.015   1.375   1.320 -0.2788  0.9776  0.3912
  122MOL   H10739069   1.190   1.374   1.198 -1.0531  1.4463 -0.5457
  122MOL   H10839070   1.091   1.201   1.520 -1.3835 -2.5999  0.1166
  122MOL   H10939071   1.205   0.824   1.369 -1.8518  0.1516  0.6461
  122MOL   H11039072   1.307   0.930   1.166 -1.1866 -2.0203  1.2780
  122MOL   H11139073   1.292   1.169   1.129  0.0407  0.1600  0.2358
  122MOL   H11239074   0.976   1.291   1.262 -0.5290  0.7852  0.8435
  122MOL   H11339075   0.988   1.359   1.424  1.7347  1.2216  0.9741
  122MOL   C11439076   0.953   1.503   1.266  0.8794  0.4220 -0.2008
  122MOL   C11539077   1.004   1.541   1.125  0.1047  0.2283  0.0204
  122MOL   C11639078   1.011   1.454   1.016 -0.5345  0.9958 -0.7277
  122MOL   C11739079   1.051   1.483   0.885  0.5293 -0.7978 -0.0218
  122MOL  Cl11839080   1.059   1.354   0.768 -0.1228 -0.0039  0.1284
  122MOL   C11939081   1.099   1.613   0.864  0.6211 -0.3976  0.0196
  122MOL   C12039082   1.096   1.708   0.976 -0.0358  0.1239  0.0707
  122MOL   C12139083   1.043   1.670   1.098 -0.7821  0.1689 -0.0288
  122MOL   C12239084   0.800   1.502   1.269  0.6558 -0.5950 -0.4022
  122MOL   H12339085   0.983   1.584   1.333 -1.9323 -0.6187  2.4512
  122MOL   H12439086   0.973   1.353   1.020  2.0351 -0.0326 -0.9770
  122MOL   H12539087   1.147   1.631   0.769  2.3731  1.2959  1.1778
  122MOL   H12639088   1.125   1.812   0.963 -1.7447  0.7012  0.7390
  122MOL   H12739089   1.030   1.752   1.167 -3.1065  0.6255 -0.9465
  122MOL   H12839090   0.775   1.427   1.194  0.1000 -1.1696  0.3546
  122MOL   H12939091   0.754   1.475   1.364 -1.4868  0.2656 -1.1560
  122MOL   C13039092   0.723   1.632   1.230  0.0799 -0.3668 -0.2545
  122MOL   C13139093   0.576   1.614   1.206  0.2632 -0.0182 -0.3812
  122MOL   C13239094   0.518   1.648   1.085  0.5990 -0.1173 -0.1023
  122MOL   C13339095   0.381   1.625   1.064  0.2112  0.6465 -0.5852
  122MOL  Cl13439096   0.319   1.662   0.913 -0.2794 -0.2235 -0.6811
  122MOL   C13539097   0.308   1.546   1.159 -0.8770 -0.3081  0.0459
  122MOL   C13639098   0.365   1.510   1.283  0.8299 -0.7294  0.0376
  122MOL   C13739099   0.500   1.546   1.308  0.1092  0.4891 -0.3027
  122MOL   C13839100   0.750   1.744   1.337 -0.6151 -0.2189  0.7348
  122MOL   H13939101   0.769   1.673   1.140 -1.5122  2.1549  0.0566
  122MOL   H14039102   0.583   1.690   1.009 -1.1448 -0.2908 -1.7333
  122MOL   H14139103   0.208   1.525   1.124 -0.9428  0.1514 -0.0494
  122MOL   H14239104   0.312   1.451   1.356 -0.2820  0.9610  0.6382
  122MOL   H14339105   0.558   1.529   1.397  0.0082 -1.4927 -0.5867
  122MOL   H14439106   0.734   1.705   1.438  0.8156  0.3613  1.2080
  122MOL   H14539107   0.857   1.766   1.333 -0.5830 -0.6790 -1.7622
  122MOL   C14639108   0.680   1.879   1.318  0.1573  0.1816  0.3171
  122MOL   C14739109   0.684   1.966   1.444  0.1951 -0.3550 -0.1532
  122MOL   C14839110   0.621   1.919   1.558 -0.1341  0.0664  0.4549
  122MOL   C14939111   0.634   1.982   1.676  0.0133  0.2452  0.2221
  122MOL  Cl15039112   0.574   1.897   1.812 -0.1246 -0.2598 -0.1146
  122MOL   C15139113   0.695   2.106   1.690 -0.5984 -0.6823  0.6404
  122MOL   C15239114   0.772   2.152   1.580 -0.4098  0.4293  0.3473
  122MOL   C15339115   0.768   2.079   1.457 -0.7716  0.0232  0.3066
  122MOL   C15439116   0.721   1.943   1.178  0.0314  0.1148  0.1275
  122MOL   H15539117   0.575   1.849   1.304 -0.6873  2.1571  2.2560
  122MOL   H15639118   0.558   1.832   1.554 -0.4069  0.2321  1.0572
  122MOL   H15739119   0.708   2.161   1.782 -0.1352  0.2815  0.0090
  122MOL   H15839120   0.841   2.234   1.596 -0.7230  0.6127  0.7525
  122MOL   H15939121   0.830   2.107   1.373 -0.9863 -0.0495  0.1218
  122MOL   H16039122   0.829   1.956   1.184  0.2285 -1.5860  0.2858
  122MOL   H16139123   0.717   1.869   1.098  0.6198  0.3446 -0.1200
  122MOL   C16239124   0.649   2.076   1.146 -0.2861 -0.1665 -0.1892
  122MOL   C16339125   0.745   2.158   1.058 -0.4448 -0.0223 -0.2701
  122MOL   C16439126   0.800   2.275   1.103 -0.0336  0.4669 -0.1312
  122MOL   C16539127   0.890   2.350   1.030 -0.0709  0.3895  0.1522
  122MOL  Cl16639128   0.939   2.509   1.080 -0.4694  0.2511  0.1076
  122MOL   C16739129   0.926   2.314   0.901 -0.5680  0.2559  0.2700
  122MOL   C16839130   0.877   2.195   0.855 -0.3000 -0.3330 -0.6929
  122MOL   C16939131   0.796   2.113   0.936  0.7927  0.1835  0.4355
  122MOL   C17039132   0.513   2.041   1.084 -0.2816  0.2003  0.8458
  122MOL   H17139133   0.631   2.141   1.231  0.1002 -0.8005  0.3778
  122MOL   H17239134   0.773   2.317   1.199 -0.1709  1.5077 -0.6095
  122MOL   H17339135   0.995   2.373   0.843 -2.0520  2.1099  0.3543
  122MOL   H17439136   0.910   2.164   0.757  1.4228  2.0126 -0.8728
  122MOL   H17539137   0.765   2.017   0.898 -1.9922  1.2528 -0.1004
  122MOL   H17639138   0.520   1.973   1.000  0.6708 -0.0794  1.1503
  122MOL   H17739139   0.448   1.992   1.157 -0.7232 -0.8361 -0.2334
  122MOL   C17839140   0.434   2.160   1.032 -0.2564 -0.0869 -0.2676
  122MOL   C17939141   0.311   2.117   0.953  0.4318  0.0726 -0.1207
  122MOL   C18039142   0.282   2.185   0.831  0.3973  0.9532 -0.4708
  122MOL   C18139143   0.163   2.159   0.761  0.6885  0.1024  0.0933
  122MOL  Cl18239144   0.124   2.257   0.620 -0.0302  0.2381 -0.3680
  122MOL   C18339145   0.083   2.056   0.809  0.3073 -0.4206  0.1994
  122MOL   C18439146   0.118   1.974   0.923 -0.2136  0.6989  0.2343
  122MOL   C18539147   0.229   2.010   0.996 -0.2855  0.1998  0.0539
  122MOL   C18639148   0.417   2.279   1.128 -0.6205  0.8284 -0.0219
  122MOL   H18739149   0.500   2.202   0.957 -2.3327  1.8321 -1.0496
  122MOL   H18839150   0.344   2.267   0.797  2.8339 -1.1210 -1.1351
  122MOL   H18939151   8.434   2.035   0.745  0.1853  2.4994 -0.6663
  122MOL   H19039152   0.076   1.878   0.950  1.4235 -0.6678 -1.8801
  122MOL   H19139153   0.265   1.952   1.080  0.0520  1.2267  0.6296
  122MOL   H19239154   0.518   2.313   1.150 -0.3671  0.4119 -0.5198
  122MOL   H19339155   0.378   2.371   1.084 -1.4734  0.4810 -0.0161
  122MOL   C19439156   0.342   2.259   1.264  0.3876 -0.3137  0.0163
  122MOL   C19539157   0.394   2.352   1.370 -0.9874  0.5529  0.4524
  122MOL   C19639158   0.396   2.493   1.345 -0.0349  0.0261 -0.3232
  122MOL   C19739159   0.454   2.579   1.441  0.5793  0.1231  0.2469
  122MOL  Cl19839160   0.459   2.750   1.409  0.4828  0.6191 -0.0028
  122MOL   C19939161   0.516   2.525   1.555 -0.5483  0.1868  0.7340
  122MOL   C20039162   0.510   2.387   1.581  0.3859  0.0555 -0.2023
  122MOL   C20139163   0.458   2.301   1.480  0.0916 -0.3568  0.1883
  122MOL   C20239164   0.186   2.273   1.250  0.3929  0.8501 -0.0168
  122MOL   H20339165   0.373   2.161   1.299  0.9411  0.6111  2.1640
  122MOL   H20439166   0.351   2.541   1.259 -1.0037  0.5994  0.4990
  122MOL   H20539167   0.559   2.599   1.621 -0.9335  0.8017  0.3014
  122MOL   H20639168   0.556   2.342   1.668 -0.0877 -0.0053  0.0183
  122MOL   H20739169   0.468   2.194   1.490 -1.9632 -0.4456  1.6544
  122MOL   H20839170   0.167   2.372   1.292 -0.6512  1.1952 -1.2773
  122MOL   H20939171   0.172   2.278   1.142  0.1248 -1.1898 -0.0947
  122MOL   C21039172   0.095   2.160   1.307  0.2432  0.0626 -0.2108
  122MOL   C21139173   0.136   2.128   1.455  1.1256 -0.0794  0.3074
  122MOL   C21239174   0.124   2.229   1.552 -0.7824 -0.0635 -0.2929
  122MOL   C21339175   0.181   2.221   1.679  0.2006 -0.0329  0.1332
  122MOL  Cl21439176   0.154   2.344   1.791  0.2781  0.1646  0.0896
  122MOL   C21539177   0.263   2.108   1.713 -0.0505  0.5525  0.5580
  122MOL   C21639178   0.267   1.999   1.622 -0.2080  0.6300  0.3757
  122MOL   C21739179   0.202   2.003   1.498 -0.5420 -0.4735 -0.0152
  122MOL   C21839180   8.376   2.193   1.285 -0.1754 -0.4264  0.1600
  122MOL   H21939181   0.120   2.063   1.263 -0.1219 -1.3320  2.5284
  122MOL   H22039182   0.086   2.324   1.519 -0.8570  0.0208  0.0348
  122MOL   H22139183   0.321   2.103   1.804  0.5895  1.9823  0.2367
  122MOL   H22239184   0.346   1.930   1.647  0.6357  1.6178  0.4852
  122MOL   H22339185   0.209   1.922   1.427 -0.2399 -0.9912  0.6062
  122MOL   H22439186   8.340   2.217   1.384 -1.4630 -2.7910  0.3003
  122MOL   H22539187   8.358   2.290   1.240 -1.7265 -0.9295 -0.3373
  122MOL   C22639188   8.299   2.077   1.213 -0.8498  0.6075 -0.4709
  122MOL   C22739189   8.334   1.939   1.271 -0.3633 -0.4351  0.6777
  122MOL   C22839190   8.326   1.927   1.414  0.2354  0.1619 -0.4756
  122MOL   C22939191   8.372   1.807   1.473 -0.7034 -0.1232 -0.5865
  122MOL  Cl23039192   8.381   1.784   1.645  0.1764  0.2203 -0.1224
  122MOL   C23139193   8.399   1.692   1.397  0.4643  0.4063 -0.2569
  122MOL   C23239194   8.392   1.699   1.259  0.4013  0.2171 -0.7341
  122MOL   C23339195   8.355   1.820   1.196  0.1140 -0.0411 -0.4187
  122MOL   C23439196   8.145   2.108   1.199 -0.3285  0.2083  0.1085
  122MOL   H23539197   8.329   2.067   1.109  0.3067  0.4455 -0.1303
  122MOL   H23639198   8.309   2.014   1.476 -0.1467  1.2434 -2.0773
  122MOL   H23739199   8.425   1.596   1.438 -2.4404 -0.5036 -0.3778
  122MOL   H23839200   8.412   1.614   1.195 -1.3351  0.7264 -2.0171
  122MOL   H23939201   8.336   1.817   1.090 -1.3376 -1.7861 -0.1337
  122MOL   H24039202   8.091   2.110   1.294 -3.0527  1.4606 -1.4070
  122MOL   H24139203   8.133   2.212   1.168  2.0753  0.6332  0.4582
  122MOL   C24239204   8.063   2.016   1.099  0.2380 -0.1202  0.3373
  122MOL   C24339205   7.916   2.047   1.126 -0.5449  0.0403  0.3262
  122MOL   C24439206   7.868   2.181   1.112  0.1549 -0.0562  0.8174
  122MOL   C24539207   7.736   2.206   1.145  1.1820  0.1085  0.4841
  122MOL  Cl24639208   7.676   2.364   1.117  0.5064 -0.2553 -0.1235
  122MOL   C24739209   7.645   2.107   1.188  0.1417  0.0387  0.0922
  122MOL   C24839210   7.697   1.977   1.203 -0.5591  0.1690 -0.1647
  122MOL   C24939211   7.831   1.943   1.165  0.2989 -0.6759 -0.5218
  122MOL   C25039212   8.105   2.040   0.949  0.3960 -0.1787  0.7632
  122MOL   H25139213   8.089   1.911   1.113  0.5452 -0.2087 -0.8444
  122MOL   H25239214   7.934   2.254   1.068  0.6843 -0.0654  1.5860
  122MOL   H25339215   7.544   2.134   1.217  0.7167 -0.3887  2.5618
  122MOL   H25439216   7.636   1.897   1.240  0.8431 -0.6450  0.4415
  122MOL   H25539217   7.863   1.841   1.176 -0.2635 -0.7835  0.2037
  122MOL   H25639218   8.047   2.118   0.901  0.4242 -0.4746  0.2438
  122MOL   H25739219   8.205   2.084   0.943 -0.3915  1.5020 -0.3246
  122MOL   C25839220   8.095   1.914   0.851  0.2640  0.0087 -0.5323
  122MOL   C25939221   7.975   1.821   0.880  0.0533  0.4926 -0.3445
  122MOL   C26039222   7.844   1.850   0.833 -0.2331  0.4886  1.5132
  122MOL   C26139223   7.739   1.758   0.869  0.3101 -0.2341 -0.6303
  122MOL  Cl26239224   7.580   1.771   0.804 -0.1510 -0.3881  0.1138
  122MOL   C26339225   7.766   1.652   0.961 -0.7705 -0.6200  0.0840
  122MOL   C26439226   7.894   1.627   1.007  0.0125  0.3339  0.9230
  122MOL   C26539227   7.999   1.710   0.969  0.7036 -0.1560  0.0263
  122MOL   C26639228   8.113   1.958   0.705  0.3187  0.2471 -0.4229
  122MOL   H26739229   8.174   1.847   0.885 -0.0991 -0.4070 -0.5001
  122MOL   H26839230   7.820   1.931   0.766  1.2521 -0.4609 -0.2162
  122MOL   H26939231   7.680   1.594   0.991 -0.9849 -0.1049  0.4756
  122MOL   H27039232   7.914   1.543   1.073  0.4302 -1.3254 -1.2430
  122MOL   H27139233   8.099   1.701   1.010  0.1481 -2.6253  0.9076
  122MOL   H27239234   8.017   2.002   0.678 -0.9221 -1.4188  1.1751
  122MOL   H27339235   8.177   2.045   0.691 -0.1263  0.2940 -2.3746
  122MOL   C27439236   8.134   1.841   0.616  0.6003  0.5080  0.5776
  122MOL   C27539237   8.059   1.860   0.483 -0.3459 -0.1576  0.2504
  122MOL   C27639238   8.113   1.954   0.385  0.2324  0.1872  0.3202
  122MOL   C27739239   8.052   1.965   0.256  0.7416  0.1969 -0.0532
  122MOL  Cl27839240   8.103   2.089   0.150 -0.1684 -0.2132  0.0495
  122MOL   C27939241   7.929   1.900   0.230  0.1418 -0.0793 -0.6962
  122MOL   C28039242   7.868   1.823   0.333  0.2916  0.1721 -0.2344
  122MOL   C28139243   7.934   1.803   0.458  0.0928  0.0809 -0.3649
  122MOL   C28239244   8.282   1.798   0.608 -0.2720  0.3393  0.9722
  122MOL   H28339245   8.076   1.758   0.655 -1.2285  1.3789 -0.2620
  122MOL   H28439246   8.197   2.019   0.406  0.0007  0.8096 -0.6714
  122MOL   H28539247   7.884   1.913   0.133  1.4564  0.1125 -1.2823
  122MOL   H28639248   7.770   1.780   0.318  0.4112 -0.0566 -0.3786
  122MOL   H28739249   7.885   1.749   0.538  1.4909  1.2754  1.3419
  122MOL   H28839250   8.327   1.861   0.530 -0.1890  1.0924  1.6215
  122MOL   H28939251   8.328   1.820   0.704  0.3495  1.6430  0.4071
  122MOL   C29039252   8.311   1.658   0.552 -0.1158  0.6884 -0.6337
  122MOL   C29139253   0.022   1.643   0.505 -0.2284 -0.7003  0.5342
  122MOL   C29239254   0.052   1.618   0.374 -0.0886 -0.3721  0.5176
  122MOL   C29339255   0.187   1.607   0.337  0.5222  0.5678  0.0718
  122MOL  Cl29439256   0.221   1.593   0.168 -0.0135 -0.3375  0.1438
  122MOL   C29539257   0.294   1.595   0.424  0.0871 -0.6676  0.5359
  122MOL   C29639258   0.267   1.631   0.554 -0.7412 -0.0634 -0.3824
  122MOL   C29739259   0.131   1.661   0.593 -0.2446 -0.3920  0.0667
  122MOL   C29839260   8.259   1.543   0.640 -0.0418 -0.1929 -0.0967
  122MOL   H29939261   8.248   1.652   0.463 -1.6447 -0.4516  0.5159
  122MOL   H30039262   8.405   1.606   0.306 -1.1733  1.3238  1.5024
  122MOL   H30139263   0.396   1.575   0.395  0.6714 -0.0901  2.1136
  122MOL   H30239264   0.347   1.628   0.627  0.7543 -1.8263 -2.0644
  122MOL   H30339265   0.111   1.684   0.697  1.1842  0.9557  0.0609
  122MOL   H30439266   8.323   1.547   0.728 -0.9503  2.0017  0.4836
  122MOL   H30539267   8.158   1.570   0.672 -0.8403 -2.7820 -0.3197
  122MOL   C30639268   8.266   1.405   0.578 -0.3979  0.4845 -0.3674
  122MOL   C30739269   8.264   1.293   0.676 -0.9445 -0.5995 -0.4378
  122MOL   C30839270   8.188   1.307   0.791  0.4523 -0.4116  0.2469
  122MOL   C30939271   8.179   1.198   0.879 -0.4849  0.5447  0.0635
  122MOL  Cl31039272   8.069   1.209   1.014 -0.1402  0.0650  0.2426
  122MOL   C31139273   8.245   1.075   0.858  0.4498  0.0117 -0.0107
  122MOL   C31239274   8.321   1.063   0.738  0.3219 -0.2210 -0.0783
  122MOL   C31339275   8.340   1.174   0.654 -0.4025 -0.4345 -0.7014
  122MOL   C31439276   8.152   1.392   0.477  0.3380  0.7124  0.2277
  122MOL   H31539277   8.359   1.393   0.523  1.0306 -1.5944  2.4454
  122MOL   H31639278   8.136   1.396   0.820  0.9589 -0.5273  1.5137
  122MOL   H31739279   8.241   0.991   0.926  1.1985 -1.0812 -1.2972
  122MOL   H31839280   8.369   0.969   0.713  0.0909  0.1592 -2.0299
  122MOL   H31939281   8.400   1.169   0.564  2.1427  2.7401  0.7317
  122MOL   H32039282   8.181   1.436   0.381 -0.5394 -2.2835 -1.4847
  122MOL   H32139283   8.140   1.288   0.448  1.1520  0.8702 -0.7418
  122MOL   H32239284   8.055   1.428   0.512 -0.1113 -0.7932  0.5559
  123MOL     C139285   4.344   1.253   1.628 -0.2176 -0.1327 -0.2646
  123MOL     C239286   4.377   1.219   1.483  0.6077 -0.1137  1.4432
  123MOL     C339287   4.291   1.244   1.379 -0.3167  0.2457  0.5171
  123MOL     C439288   4.328   1.221   1.245 -0.0227 -0.2895  0.3651
  123MOL    Cl539289   4.207   1.265   1.124 -0.4796 -0.2575 -0.2309
  123MOL     C639290   4.462   1.182   1.217 -0.9632  0.2566  0.4024
  123MOL     C739291   4.551   1.165   1.326  0.6986  0.7142 -0.1660
  123MOL     C839292   4.508   1.177   1.453 -0.1710  0.2874  0.0764
  123MOL     C939293   4.405   1.384   1.683 -0.1013 -0.2855 -0.4027
  123MOL    H1039294   4.382   1.170   1.687  0.7687 -2.3785 -3.9435
  123MOL    H1139295   4.191   1.276   1.405 -0.6826 -0.3128 -0.1818
  123MOL    H1239296   4.489   1.166   1.114 -2.1356  0.6865  0.0179
  123MOL    H1339297   4.655   1.141   1.306  0.8241  0.8484  0.3303
  123MOL    H1439298   4.581   1.169   1.532  0.0889  0.7406 -0.1175
  123MOL    H1539299   4.511   1.390   1.660  0.1532 -2.7819 -0.0879
  123MOL    H1639300   4.375   1.464   1.616  2.6398  0.4715 -0.7812
  123MOL    H1739301   4.237   1.240   1.640 -0.1786 -2.4206 -2.2128
  123MOL    C1839302   4.368   1.428   1.830 -0.0688 -0.1064  0.0332
  123MOL    C1939303   4.452   1.353   1.933  0.2749  0.2599 -0.2749
  123MOL    C2039304   4.591   1.379   1.936  0.4771 -0.1068 -0.0775
  123MOL    C2139305   4.662   1.323   2.037  0.4332  0.0692  0.5417
  123MOL   Cl2239306   4.834   1.357   2.052 -0.3369 -0.0587  0.1613
  123MOL    C2339307   4.604   1.244   2.138 -0.0931  0.2697 -0.1551
  123MOL    C2439308   4.467   1.212   2.133  0.4280 -0.4729  0.6418
  123MOL    C2539309   4.390   1.265   2.027  0.3430  0.4324 -0.1841
  123MOL    C2639310   4.375   1.585   1.852  0.6967  0.5960  0.4460
  123MOL    H2739311   4.262   1.402   1.842  0.7159 -1.9507  3.4810
  123MOL    H2839312   4.634   1.460   1.877 -2.9364 -0.4935 -3.2839
  123MOL    H2939313   4.668   1.228   2.224 -0.5547  0.3872  0.2071
  123MOL    H3039314   4.416   1.148   2.204 -2.0881  1.0629  0.2958
  123MOL    H3139315   4.285   1.243   2.024  0.7614 -1.5666 -1.2179
  123MOL    H3239316   4.481   1.605   1.833  0.7177 -1.1437 -1.4203
  123MOL    H3339317   4.316   1.640   1.780 -0.3738  0.7202  1.4058
  123MOL    C3439318   4.337   1.626   1.994 -0.3975 -0.5880  0.0759
  123MOL    C3539319   4.370   1.775   2.008 -0.2716 -0.9789  0.1871
  123MOL    C3639320   4.272   1.875   1.978  0.5478 -0.0530 -0.2829
  123MOL    C3739321   4.306   2.009   1.984 -0.3344  0.2824 -0.3460
  123MOL   Cl3839322   4.180   2.128   1.953  0.2971  0.0400 -0.4421
  123MOL    C3939323   4.435   2.057   2.021 -0.0579 -0.1517 -0.7603
  123MOL    C4039324   4.532   1.961   2.035 -0.3042  0.5339 -0.0925
  123MOL    C4139325   4.505   1.825   2.037 -0.5225 -0.0246  0.0704
  123MOL    C4239326   4.188   1.598   2.025  0.5433 -0.6582  0.5810
  123MOL    H4339327   4.387   1.568   2.071 -0.6597 -1.6130 -0.5182
  123MOL    H4439328   4.168   1.854   1.960  0.4720  1.3538 -1.6092
  123MOL    H4539329   4.452   2.163   2.035 -1.8162  0.2126 -1.1445
  123MOL    H4639330   4.631   2.001   2.053 -0.3794  0.5054  0.3861
  123MOL    H4739331   4.580   1.754   2.067  1.1460  1.8322  0.3396
  123MOL    H4839332   4.117   1.624   1.947 -0.6331  0.0111  1.8354
  123MOL    H4939333   4.176   1.492   2.008  1.0778 -0.3834 -1.5565
  123MOL    C5039334   4.141   1.632   2.162 -0.0795 -0.0275  0.0385
  123MOL    C5139335   3.992   1.664   2.156  0.5694  0.4661 -0.3028
  123MOL    C5239336   3.949   1.804   2.162 -0.2841 -0.1076 -0.3725
  123MOL    C5339337   3.819   1.839   2.138  0.5291 -0.0889  0.2784
  123MOL   Cl5439338   3.770   2.007   2.118  0.0618  0.5011 -0.1707
  123MOL    C5539339   3.725   1.737   2.110 -0.1356 -0.8052 -0.5344
  123MOL    C5639340   3.760   1.606   2.116  0.3567  0.0446 -0.1970
  123MOL    C5739341   3.892   1.563   2.141 -0.6357 -0.2534  0.1777
  123MOL    C5839342   4.186   1.519   2.262 -0.2290  0.2501  0.2785
  123MOL    H5939343   4.188   1.723   2.198  0.0187 -0.4127  0.8925
  123MOL    H6039344   4.022   1.884   2.167  1.0438 -1.4192  2.6228
  123MOL    H6139345   3.623   1.753   2.080 -0.6113 -0.6474  1.0949
  123MOL    H6239346   3.692   1.525   2.093  1.0532 -0.3001 -1.1183
  123MOL    H6339347   3.910   1.456   2.143 -0.4808 -0.2188  0.6160
  123MOL    H6439348   4.164   1.418   2.225 -0.2920  0.3754 -0.0284
  123MOL    H6539349   4.295   1.527   2.256 -0.4117  1.4851 -1.8381
  123MOL    C6639350   4.134   1.519   2.405  0.3384  1.3879  0.3623
  123MOL    C6739351   4.124   1.371   2.453 -0.2013  0.1404  0.3184
  123MOL    C6839352   4.244   1.289   2.455  0.0084  0.6083  0.5168
  123MOL    C6939353   4.248   1.160   2.514 -0.0166 -0.2766  0.0907
  123MOL   Cl7039354   4.389   1.067   2.518 -0.0581 -0.2661  0.1343
  123MOL    C7139355   4.134   1.110   2.589 -0.1687  0.0687  0.2980
  123MOL    C7239356   4.018   1.192   2.596  0.6406  0.3728 -0.4397
  123MOL    C7339357   4.015   1.316   2.528 -0.1406 -0.6605 -0.1205
  123MOL    C7439358   4.241   1.581   2.493 -0.0253 -0.3699 -0.0157
  123MOL    H7539359   4.042   1.577   2.413  1.1027  2.7855 -0.7051
  123MOL    H7639360   4.331   1.325   2.402  0.0124  1.2898  0.9773
  123MOL    H7739361   4.132   1.012   2.636 -1.2210  0.4515  1.0911
  123MOL    H7839362   3.927   1.154   2.640  1.9625 -0.1742  1.9395
  123MOL    H7939363   3.928   1.380   2.540  0.4951  0.3761 -0.9598
  123MOL    H8039364   4.206   1.563   2.594  0.0392  1.2089  0.3078
  123MOL    H8139365   4.341   1.540   2.480 -0.1551  0.1764 -3.2362
  123MOL    C8239366   4.268   1.736   2.490  0.1849  0.4074 -0.3699
  123MOL    C8339367   4.143   1.825   2.519  0.0307 -0.5089 -0.1087
  123MOL    C8439368   4.120   1.936   2.435  0.8691  0.6026  0.3481
  123MOL    C8539369   4.011   2.019   2.457  0.4734  0.0306 -0.2840
  123MOL   Cl8639370   3.982   2.144   2.348 -0.3400 -0.3159 -0.1461
  123MOL    C8739371   3.922   2.001   2.565 -0.1281  0.3603 -0.3319
  123MOL    C8839372   3.950   1.892   2.654 -0.7016  0.1411  0.0251
  123MOL    C8939373   4.059   1.812   2.635 -0.0417 -0.2544  0.6955
  123MOL    C9039374   4.380   1.760   2.599 -0.0247  0.1964 -0.2485
  123MOL    H9139375   4.303   1.763   2.391 -0.0396  3.1579  0.2656
  123MOL    H9239376   4.182   1.953   2.349  0.4465 -2.0678 -0.5379
  123MOL    H9339377   3.829   2.054   2.580  0.7309  1.3610  1.7712
  123MOL    H9439378   3.895   1.878   2.746  0.6553  0.8394  0.9598
  123MOL    H9539379   4.075   1.731   2.705  3.1222 -0.5628 -0.3049
  123MOL    H9639380   4.331   1.731   2.692 -1.7688 -1.3570 -1.6149
  123MOL    H9739381   4.464   1.696   2.577 -0.7813 -0.6056 -0.8170
  123MOL    C9839382   4.430   1.906   2.619 -0.7827  0.4067 -0.0979
  123MOL    C9939383   4.485   1.925   2.762  0.2055 -0.2004  0.6683
  123MOL   C10039384   4.588   1.849   2.808  0.0641 -0.1413  0.5370
  123MOL   C10139385   4.642   1.880   2.933 -0.0234 -0.1668  0.3956
  123MOL  Cl10239386   4.765   1.781   3.003  0.3031 -0.1252  0.2982
  123MOL   C10339387   4.591   1.986   3.013  0.4484 -0.3941  0.5416
  123MOL   C10439388   4.483   2.062   2.964 -0.1113 -0.6517  0.1312
  123MOL   C10539389   4.434   2.032   2.834  1.0918 -0.4414 -0.4399
  123MOL   C10639390   4.514   1.958   2.509  0.1128 -0.3685  0.3219
  123MOL   H10739391   4.335   1.960   2.616  0.0566  1.8800 -0.3389
  123MOL   H10839392   4.634   1.778   2.740 -0.1157 -0.3069  0.5871
  123MOL   H10939393   4.623   1.997   3.115 -0.2242  2.3461  0.5160
  123MOL   H11039394   4.437   2.131   3.034  1.1961 -0.3313  0.6947
  123MOL   H11139395   4.356   2.094   2.792  0.0449 -0.7845  0.9532
  123MOL   H11239396   4.603   1.894   2.499  0.5963  0.3395  0.0348
  123MOL   H11339397   4.454   1.933   2.421  0.5639 -1.6948  0.3816
  123MOL   C11439398   4.572   2.108   2.512  0.4186 -0.2237  0.7357
  123MOL   C11539399   4.707   2.108   2.440  0.5205  0.3519  0.0903
  123MOL   C11639400   4.733   2.027   2.329  0.5703 -0.0247 -0.1676
  123MOL   C11739401   4.865   2.022   2.270 -0.3118 -0.1977 -0.0328
  123MOL  Cl11839402   4.898   1.930   2.125  0.0348  0.1334 -0.1343
  123MOL   C11939403   4.972   2.092   2.321 -0.1936  0.0320  0.0495
  123MOL   C12039404   4.949   2.173   2.429 -0.0747 -0.2960 -0.3499
  123MOL   C12139405   4.818   2.174   2.488 -0.3089  0.1254 -0.4776
  123MOL   C12239406   4.488   2.222   2.441 -0.1091  0.1234  0.7063
  123MOL   H12339407   4.596   2.128   2.617 -0.5630  0.0067  0.9193
  123MOL   H12439408   4.652   1.973   2.283  1.7266 -0.8116 -1.3565
  123MOL   H12539409   5.068   2.101   2.273 -0.5559  0.1696 -0.6553
  123MOL   H12639410   5.026   2.219   2.489  0.4435  0.0121 -1.2523
  123MOL   H12739411   4.797   2.229   2.579 -2.8084 -1.7831  0.1441
  123MOL   H12839412   4.552   2.309   2.429 -0.5223  0.1710 -1.3741
  123MOL   H12939413   4.450   2.198   2.341  0.5695  1.1178  0.1952
  123MOL   C13039414   4.367   2.262   2.525 -0.4037 -0.2869  0.6736
  123MOL   C13139415   4.383   2.351   2.649  0.0480 -0.8134  0.0973
  123MOL   C13239416   4.264   2.368   2.734  0.2879  0.5446 -0.3561
  123MOL   C13339417   4.275   2.442   2.853  0.8877 -0.1153  0.7458
  123MOL  Cl13439418   4.143   2.453   2.967  0.1297  0.0181  0.7165
  123MOL   C13539419   4.399   2.494   2.893 -0.1060 -0.3552  0.2934
  123MOL   C13639420   4.512   2.484   2.809 -0.0146 -0.0628  0.0887
  123MOL   C13739421   4.505   2.412   2.684 -0.4291 -0.1273 -0.3259
  123MOL   C13839422   4.247   2.317   2.438 -0.5582 -0.1552  0.0162
  123MOL   H13939423   4.334   2.172   2.577  1.2610 -1.7519 -0.7379
  123MOL   H14039424   4.179   2.303   2.717  0.7572  0.2897 -1.8655
  123MOL   H14139425   4.416   2.549   2.985 -0.5890  0.3517 -0.0419
  123MOL   H14239426   4.603   2.525   2.849  0.5143 -1.3527  0.2404
  123MOL   H14339427   4.598   2.402   2.630 -0.4161 -0.5453 -0.2265
  123MOL   H14439428   4.240   2.252   2.351  1.2739  1.0534 -1.0696
  123MOL   H14539429   4.154   2.301   2.492  0.2107  1.3990  1.8445
  123MOL   C14639430   4.261   2.467   2.398  0.2250 -0.4964  0.8288
  123MOL   C14739431   4.379   2.488   2.304  0.0514  0.7486 -0.2254
  123MOL   C14839432   4.483   2.581   2.330  0.1332 -0.3272 -0.5254
  123MOL   C14939433   4.582   2.603   2.235 -0.2164 -0.3220  0.6233
  123MOL  Cl15039434   4.700   2.723   2.266 -0.6743  0.2484 -0.1769
  123MOL   C15139435   4.577   2.533   2.112  0.9674 -0.2013 -0.2797
  123MOL   C15239436   4.481   2.441   2.077  0.7499  0.2500 -0.3130
  123MOL   C15339437   4.377   2.419   2.177 -0.9620 -0.8720  0.3039
  123MOL   C15439438   4.132   2.519   2.330 -0.8427  0.9326  0.0848
  123MOL   H15539439   4.290   2.527   2.484 -0.2951  2.3135 -0.8674
  123MOL   H15639440   4.480   2.642   2.418 -0.6272 -1.5024  0.2845
  123MOL   H15739441   4.644   2.566   2.033 -1.2311 -0.6380 -2.3954
  123MOL   H15839442   4.476   2.391   1.982 -0.2671  0.6159 -0.4613
  123MOL   H15939443   4.294   2.357   2.147 -1.2814 -0.1396 -0.3597
  123MOL   H16039444   4.147   2.597   2.256 -0.4626  1.4419  0.6905
  123MOL   H16139445   4.081   2.442   2.273  1.0868 -0.9745  0.8208
  123MOL   C16239446   4.040   2.577   2.435  0.0537 -0.3814  0.2384
  123MOL   C16339447   4.108   2.691   2.511  0.2574  0.1224 -0.0863
  123MOL   C16439448   4.159   2.802   2.442  0.1806 -0.3810  0.2366
  123MOL   C16539449   4.228   2.905   2.511  0.0620  0.4437 -0.5851
  123MOL  Cl16639450   4.303   3.036   2.428 -0.3141  0.0655  0.3347
  123MOL   C16739451   4.239   2.904   2.652  0.4032  0.0222 -0.2421
  123MOL   C16839452   4.168   2.801   2.720 -0.4921  0.1276 -0.3945
  123MOL   C16939453   4.108   2.691   2.655 -0.0159 -0.2270  0.1367
  123MOL   C17039454   3.912   2.635   2.357 -0.3101  0.6393 -0.3753
  123MOL   H17139455   3.990   2.514   2.509 -0.3720  0.6890  0.8775
  123MOL   H17239456   4.172   2.800   2.334 -2.7216 -1.0008 -0.1297
  123MOL   H17339457   4.297   2.978   2.705 -1.6815  1.0166  0.7312
  123MOL   H17439458   4.168   2.810   2.828 -1.9224 -3.1021 -0.0842
  123MOL   H17539459   4.073   2.609   2.716  0.3824 -0.0240  0.6377
  123MOL   H17639460   3.858   2.694   2.431 -0.8710  0.6385 -0.7821
  123MOL   H17739461   3.954   2.698   2.279  0.7928 -0.4817 -0.7023
  123MOL   C17839462   3.817   2.531   2.303 -0.4678  0.2922  0.5863
  123MOL   C17939463   3.739   2.448   2.411 -0.1945  0.0134  0.5354
  123MOL   C18039464   3.708   2.503   2.540  0.3383  0.0323  0.3589
  123MOL   C18139465   3.634   2.424   2.630 -0.5868  0.4326  0.0511
  123MOL  Cl18239466   3.603   2.472   2.794  0.3283  0.1186 -0.7532
  123MOL   C18339467   3.596   2.299   2.586  0.0254  0.1717 -0.4373
  123MOL   C18439468   3.629   2.242   2.471  0.4345 -0.3272 -1.0403
  123MOL   C18539469   3.700   2.314   2.380  0.5945 -0.3862  0.5373
  123MOL   C18639470   3.726   2.598   2.203  0.4366 -0.2895 -0.6726
  123MOL   H18739471   3.873   2.467   2.235  2.0522  2.9381  0.0743
  123MOL   H18839472   3.732   2.598   2.586 -0.3170  2.0263 -3.2468
  123MOL   H18939473   3.540   2.236   2.653 -0.8578 -0.3586 -1.6468
  123MOL   H19039474   3.591   2.143   2.450  3.1325 -1.2736 -1.6788
  123MOL   H19139475   3.734   2.266   2.289  0.4669 -0.0672  0.3176
  123MOL   H19239476   3.656   2.666   2.252  0.6482  0.1695 -0.9988
  123MOL   H19339477   3.798   2.653   2.143  2.1876  0.2612  1.8713
  123MOL   C19439478   3.645   2.506   2.105 -0.7625  0.1195  0.8012
  123MOL   C19539479   3.521   2.438   2.159  1.4586 -0.2423  0.1379
  123MOL   C19639480   3.421   2.505   2.238  0.1117  0.4845  0.4427
  123MOL   C19739481   3.309   2.437   2.288 -0.3405 -0.0148 -0.5711
  123MOL  Cl19839482   3.183   2.521   2.378 -0.2010  0.3025  0.1873
  123MOL   C19939483   3.283   2.307   2.241  0.6775  1.1891  0.1005
  123MOL   C20039484   3.379   2.239   2.158  0.4744 -0.3369  0.1732
  123MOL   C20139485   3.497   2.304   2.125 -0.1341  0.0198  1.1188
  123MOL   C20239486   3.608   2.592   1.979 -0.0296  0.4368  0.6475
  123MOL   H20339487   3.711   2.426   2.071  1.7548  2.2634  0.4962
  123MOL   H20439488   3.446   2.609   2.257  1.1916  0.4907 -0.9995
  123MOL   H20539489   3.192   2.256   2.269  0.3225  2.1842  0.7658
  123MOL   H20639490   3.352   2.143   2.119  1.6258 -0.0243 -1.4169
  123MOL   H20739491   3.555   2.239   2.061  2.3954  1.9411  1.3509
  123MOL   H20839492   3.519   2.560   1.925  0.0220  2.1460 -0.5121
  123MOL   H20939493   3.574   2.687   2.020  0.3790  0.9684 -0.2222
  123MOL   C21039494   3.727   2.614   1.882  0.1971  0.2266 -0.1243
  123MOL   C21139495   3.738   2.491   1.796  0.0668 -0.8119  0.0613
  123MOL   C21239496   3.629   2.464   1.710 -0.6702 -0.4696 -0.0761
  123MOL   C21339497   3.618   2.338   1.646  1.0426  0.2023  0.5595
  123MOL  Cl21439498   3.476   2.302   1.556 -0.3268 -0.0593 -0.0058
  123MOL   C21539499   3.714   2.238   1.672  0.1890  0.0177  0.0183
  123MOL   C21639500   3.827   2.266   1.753  0.1960 -0.2001  0.0570
  123MOL   C21739501   3.841   2.396   1.811 -0.4805  0.4981 -0.4694
  123MOL   C21839502   3.736   2.753   1.814 -0.6258  0.1123  0.5489
  123MOL   H21939503   3.821   2.602   1.936 -0.2506 -0.9753  0.4171
  123MOL   H22039504   3.546   2.533   1.702 -0.7513 -0.5612 -0.0295
  123MOL   H22139505   3.699   2.135   1.642  0.6804 -0.2022  0.5106
  123MOL   H22239506   3.902   2.189   1.765  0.2089 -0.1060  0.5928
  123MOL   H22339507   3.925   2.420   1.875 -0.4222  3.1915 -1.5251
  123MOL   H22439508   3.642   2.765   1.761  0.3812 -1.2888 -1.6223
  123MOL   H22539509   3.741   2.836   1.885 -0.5447 -1.3486  2.3052
  123MOL   C22639510   3.846   2.775   1.701  0.0174 -0.9762 -0.3887
  123MOL   C22739511   3.823   2.908   1.619 -0.4294  0.4225 -0.2953
  123MOL   C22839512   3.887   3.031   1.649  0.2403 -0.2882 -0.0028
  123MOL   C22939513   3.863   3.142   1.570  0.1216  0.5078  0.0211
  123MOL  Cl23039514   3.944   3.285   1.619 -0.0027 -0.0294  0.1916
  123MOL   C23139515   3.770   3.136   1.464  0.1005  0.1306 -0.2573
  123MOL   C23239516   3.707   3.014   1.438  0.6480  0.2610 -0.8513
  123MOL   C23339517   3.732   2.898   1.514  0.3201  0.0277 -0.5624
  123MOL   C23439518   3.990   2.762   1.759  0.3772  0.5045 -0.8213
  123MOL   H23539519   3.838   2.695   1.626  1.1281 -1.4091 -0.0467
  123MOL   H23639520   3.956   3.036   1.732 -0.2761  0.6797  0.3730
  123MOL   H23739521   3.748   3.222   1.402  0.3016  0.6261  0.3545
  123MOL   H23839522   3.631   3.003   1.362 -0.9258  1.5113  0.5135
  123MOL   H23939523   3.690   2.802   1.490  0.0830  0.0327 -0.1795
  123MOL   H24039524   3.992   2.832   1.843 -1.6929  1.7455 -1.7690
  123MOL   H24139525   4.000   2.662   1.802  0.1501  1.2087  0.9063
  123MOL   C24239526   4.111   2.802   1.674 -0.2318 -0.3091  0.5825
  123MOL   C24339527   4.221   2.858   1.750  1.1661 -0.7094 -0.3387
  123MOL   C24439528   4.269   2.985   1.719 -0.0913 -0.0718 -0.5088
  123MOL   C24539529   4.376   3.036   1.788 -0.7430  0.0511 -0.5536
  123MOL  Cl24639530   4.434   3.194   1.757  0.1942  0.0355  0.0474
  123MOL   C24739531   4.426   2.971   1.908  0.3325  0.2229 -0.2070
  123MOL   C24839532   4.369   2.848   1.940  0.2790 -0.7929 -0.8878
  123MOL   C24939533   4.268   2.788   1.865 -0.1524  0.1742  0.8223
  123MOL   C25039534   4.157   2.691   1.576 -0.4594  0.6366 -0.1228
  123MOL   H25139535   4.086   2.881   1.603 -0.0080 -0.6329  0.1417
  123MOL   H25239536   4.225   3.048   1.642  0.3888 -0.1335 -0.8352
  123MOL   H25339537   4.496   3.018   1.976 -0.6602  0.5104  0.6292
  123MOL   H25439538   4.387   2.798   2.034 -0.2580  0.3206 -0.1703
  123MOL   H25539539   4.226   2.691   1.890  0.5259  0.2445  2.2800
  123MOL   H25639540   4.212   2.610   1.624 -0.0786  1.3974  0.7335
  123MOL   H25739541   4.068   2.643   1.535 -1.5986  2.9252 -0.4501
  123MOL   C25839542   4.238   2.737   1.453 -0.4561  0.8317  1.0193
  123MOL   C25939543   4.375   2.794   1.489 -0.2306  0.9669 -0.9176
  123MOL   C26039544   4.462   2.724   1.578 -0.3117 -0.2773 -1.1829
  123MOL   C26139545   4.584   2.787   1.620  0.0176 -0.0747  0.1335
  123MOL  Cl26239546   4.679   2.713   1.740  0.1993  0.1349 -0.4845
  123MOL   C26339547   4.627   2.908   1.567 -0.3129  0.1565 -0.4500
  123MOL   C26439548   4.543   2.968   1.472 -0.4311  0.2496 -0.1008
  123MOL   C26539549   4.422   2.916   1.434  0.6647  0.7904 -0.4959
  123MOL   C26639550   4.245   2.629   1.339  0.0184  0.3237 -0.1419
  123MOL   H26739551   4.185   2.820   1.407 -1.3835  0.2691  1.0622
  123MOL   H26839552   4.432   2.625   1.611  1.8566 -0.7117 -0.4029
  123MOL   H26939553   4.716   2.963   1.595 -1.4048  1.3156  0.8097
  123MOL   H27039554   4.577   3.063   1.436  0.2544  0.3113  0.6799
  123MOL   H27139555   4.364   2.960   1.354  2.1925  0.5126 -1.7868
  123MOL   H27239556   4.244   2.527   1.378 -1.1203 -0.3082 -1.7846
  123MOL   H27339557   4.149   2.638   1.288  0.4708  0.1192 -1.0356
  123MOL   C27439558   4.349   2.653   1.229  0.9596  0.0104 -0.0405
  123MOL   C27539559   4.485   2.601   1.271  0.9259 -0.2261  0.8128
  123MOL   C27639560   4.599   2.681   1.259  0.6580  0.4085  0.3281
  123MOL   C27739561   4.727   2.624   1.284  0.5491 -0.1800  0.2454
  123MOL  Cl27839562   4.869   2.726   1.268 -0.4502 -0.0127 -0.1038
  123MOL   C27939563   4.748   2.484   1.321  0.5287  0.3056 -1.0444
  123MOL   C28039564   4.627   2.406   1.331  1.0037  0.6165  0.2224
  123MOL   C28139565   4.502   2.466   1.308  0.1444 -0.0378 -0.1004
  123MOL   C28239566   4.311   2.598   1.093 -0.3651 -0.1418  0.2101
  123MOL   H28339567   4.356   2.761   1.219  0.6662 -0.0482 -0.9033
  123MOL   H28439568   4.598   2.787   1.240  4.9659  0.6500  0.8563
  123MOL   H28539569   4.843   2.437   1.343  0.3562 -0.4727 -1.9275
  123MOL   H28639570   4.636   2.301   1.356 -0.1799  0.2170 -0.9642
  123MOL   H28739571   4.421   2.395   1.302  0.7025 -0.4495 -3.8991
  123MOL   H28839572   4.399   2.579   1.032 -0.0802  2.8541 -0.4173
  123MOL   H28939573   4.279   2.496   1.114 -0.2175  0.0082  1.1970
  123MOL   C29039574   4.226   2.680   0.995 -0.3897 -0.1675 -0.3101
  123MOL   C29139575   4.292   2.792   0.922  0.5910 -0.5457 -0.2227
  123MOL   C29239576   4.330   2.908   0.994 -0.4676  0.5562  0.1731
  123MOL   C29339577   4.381   3.023   0.926 -0.4430  0.5425 -0.1036
  123MOL  Cl29439578   4.431   3.157   1.023 -0.0404 -0.1720  0.3362
  123MOL   C29539579   4.414   3.018   0.789  0.2858 -0.2138  0.4484
  123MOL   C29639580   4.388   2.899   0.719  0.6407 -0.0220 -0.3643
  123MOL   C29739581   4.326   2.788   0.781 -0.4234  0.3934 -0.4595
  123MOL   C29839582   4.159   2.585   0.893 -0.1503  0.3423  0.1260
  123MOL   H29939583   4.154   2.733   1.056  0.6338  3.7056 -2.3367
  123MOL   H30039584   4.310   2.929   1.099  1.8308  2.0305  0.3504
  123MOL   H30139585   4.455   3.107   0.744  1.1070  0.3347  2.2266
  123MOL   H30239586   4.405   2.893   0.612 -1.3948  0.4689 -0.7542
  123MOL   H30339587   4.324   2.698   0.722 -2.0541  0.6313 -0.7962
  123MOL   H30439588   4.126   2.640   0.805 -0.2741  1.0659  0.6206
  123MOL   H30539589   4.236   2.521   0.849 -0.4624  0.4765 -0.6163
  123MOL   C30639590   4.035   2.506   0.942  0.6614 -0.2058 -0.2021
  123MOL   C30739591   3.923   2.600   0.989  0.1535 -0.5777 -0.0922
  123MOL   C30839592   3.864   2.687   0.896 -0.3709 -0.2408 -0.3500
  123MOL   C30939593   3.773   2.782   0.940 -0.4058 -0.4527 -1.0564
  123MOL  Cl31039594   3.697   2.902   0.833  0.1558 -0.1761  0.0804
  123MOL   C31139595   3.737   2.785   1.079  0.3737  0.1065  0.3223
  123MOL   C31239596   3.793   2.690   1.169  0.0683  0.0636  0.2571
  123MOL   C31339597   3.893   2.599   1.124 -0.1261  0.3072 -0.2892
  123MOL   C31439598   3.989   2.414   0.835 -0.0572  0.2933  0.1995
  123MOL   H31539599   4.072   2.436   1.017 -1.1249 -0.4638  0.4782
  123MOL   H31639600   3.895   2.700   0.793 -1.8466 -0.2347 -0.8152
  123MOL   H31739601   3.658   2.851   1.111  1.0349  0.9877  0.1468
  123MOL   H31839602   3.752   2.690   1.268 -2.4874  1.4508 -0.7416
  123MOL   H31939603   3.932   2.517   1.182 -0.6225  0.2821  0.0084
  123MOL   H32039604   4.069   2.345   0.806 -0.2063  0.0348  0.4078
  123MOL   H32139605   3.908   2.350   0.868 -0.5683  1.1569  0.6587
  123MOL   H32239606   3.959   2.461   0.741 -1.5103 -1.8948 -0.4619
  124MOL     C139607   2.567   4.311   1.686  0.1124  0.1182 -0.1643
  124MOL     C239608   2.581   4.163   1.673  0.4455 -0.3038 -0.6057
  124MOL     C339609   2.497   4.097   1.582  0.1878 -0.0942 -0.0191
  124MOL     C439610   2.507   3.959   1.574 -0.0540  0.2321  0.7308
  124MOL    Cl539611   2.420   3.880   1.460 -0.2380  0.6166 -0.2988
  124MOL     C639612   2.590   3.884   1.658 -0.1632 -0.5645 -0.9488
  124MOL     C739613   2.685   3.954   1.729 -0.8081 -0.8242 -0.0726
  124MOL     C839614   2.677   4.094   1.743 -0.1117 -0.3304  0.2483
  124MOL     C939615   2.481   4.349   1.806 -0.1414  0.6060 -0.0775
  124MOL    H1039616   2.516   4.344   1.595  1.6292  2.3052 -0.2719
  124MOL    H1139617   2.428   4.150   1.518 -1.6207 -1.4115  0.7855
  124MOL    H1239618   2.581   3.777   1.655  0.9924 -0.6705 -0.8033
  124MOL    H1339619   2.764   3.899   1.779 -0.8919 -0.9701 -0.1005
  124MOL    H1439620   2.742   4.143   1.815 -1.7519  1.1437  0.7695
  124MOL    H1539621   2.387   4.297   1.791 -0.4169  1.2005 -0.4820
  124MOL    H1639622   2.536   4.304   1.888 -1.0335 -1.1119 -0.4193
  124MOL    H1739623   2.667   4.353   1.688  0.3230 -0.2241 -2.3239
  124MOL    C1839624   2.449   4.505   1.822 -0.3413  0.3166  0.0989
  124MOL    C1939625   2.410   4.578   1.700  0.6072 -0.4320 -0.0844
  124MOL    C2039626   2.479   4.690   1.660 -0.1928  0.5773  0.2705
  124MOL    C2139627   2.440   4.767   1.550  0.9663  0.4127  0.0282
  124MOL   Cl2239628   2.526   4.906   1.509 -0.0634 -0.1303  0.0310
  124MOL    C2339629   2.329   4.721   1.478  0.0388  0.1316  0.1278
  124MOL    C2439630   2.258   4.608   1.516 -0.7854  0.3825 -0.3145
  124MOL    C2539631   2.302   4.531   1.626  0.0784 -0.0183 -0.1922
  124MOL    C2639632   2.352   4.531   1.940  0.6985 -0.4220  0.4551
  124MOL    H2739633   2.542   4.548   1.860  0.2350  0.6308 -1.6003
  124MOL    H2839634   2.565   4.717   1.720 -0.1868 -1.7368  1.3411
  124MOL    H2939635   2.297   4.785   1.397 -0.9177  0.0188  0.4038
  124MOL    H3039636   2.167   4.580   1.464 -0.9534 -0.2113  0.2914
  124MOL    H3139637   2.253   4.441   1.658 -0.9275  0.3530 -0.6476
  124MOL    H3239638   2.251   4.515   1.903  1.3457 -1.2193 -0.9931
  124MOL    H3339639   2.370   4.450   2.010 -0.0443  0.5813  1.8323
  124MOL    C3439640   2.346   4.670   2.015  0.0321  0.1208  0.3968
  124MOL    C3539641   2.336   4.798   1.933 -0.1143 -0.4212 -0.3443
  124MOL    C3639642   2.223   4.826   1.853  0.1391 -1.0291  0.2817
  124MOL    C3739643   2.211   4.933   1.771  0.7665  0.1411  0.3125
  124MOL   Cl3839644   2.065   4.951   1.672 -0.4523 -0.0483 -0.3426
  124MOL    C3939645   2.316   5.025   1.767  0.3921 -0.0073 -0.0352
  124MOL    C4039646   2.432   5.005   1.841 -0.0530 -0.3514  0.2846
  124MOL    C4139647   2.440   4.893   1.928 -0.5801 -0.5185 -0.3056
  124MOL    C4239648   2.235   4.670   2.120 -0.6336  0.3449  0.7620
  124MOL    H4339649   2.441   4.686   2.067 -0.4323  1.1375  0.9392
  124MOL    H4439650   2.141   4.757   1.850 -0.1775 -0.7123  1.1943
  124MOL    H4539651   2.304   5.106   1.696 -2.4657 -1.0163 -0.7625
  124MOL    H4639652   2.513   5.077   1.838  0.8430 -1.3849 -1.7567
  124MOL    H4739653   2.536   4.890   1.978  1.2428 -0.3928 -3.6654
  124MOL    H4839654   2.148   4.722   2.080 -1.8772 -0.5264  2.3122
  124MOL    H4939655   2.198   4.570   2.141  0.4866 -0.6842 -1.8774
  124MOL    C5039656   2.263   4.754   2.247  0.5126 -0.1896  0.4642
  124MOL    C5139657   2.134   4.799   2.311  0.3387 -0.1963 -0.1195
  124MOL    C5239658   2.029   4.707   2.343 -0.6606  0.2825  0.2810
  124MOL    C5339659   1.907   4.754   2.402  0.0706 -0.4247 -0.2672
  124MOL   Cl5439660   1.769   4.651   2.455 -0.0889 -0.1651 -0.1735
  124MOL    C5539661   1.898   4.895   2.441 -0.1098  0.0164 -0.0553
  124MOL    C5639662   2.009   4.983   2.423  0.0484 -0.2202  0.6276
  124MOL    C5739663   2.121   4.934   2.354 -0.2918 -0.7799  0.3010
  124MOL    C5839664   2.343   4.664   2.344 -0.6460 -0.0813  0.4361
  124MOL    H5939665   2.315   4.845   2.218 -0.8218 -0.4925 -3.1411
  124MOL    H6039666   2.044   4.601   2.332 -0.5860  0.4935 -1.9764
  124MOL    H6139667   1.803   4.921   2.486  0.4382  0.5187  0.8329
  124MOL    H6239668   2.004   5.084   2.459 -0.3176  0.3964 -1.0868
  124MOL    H6339669   2.207   4.995   2.333  1.3273 -1.8137  3.5617
  124MOL    H6439670   2.277   4.643   2.428 -3.0650 -0.4699 -1.5249
  124MOL    H6539671   2.375   4.567   2.304  2.1974  0.7042  0.7115
  124MOL    C6639672   2.475   4.725   2.407  0.1693 -0.7647  0.3091
  124MOL    C6739673   2.434   4.863   2.457  0.1074 -0.2752 -0.1981
  124MOL    C6839674   2.347   4.868   2.568  0.1220 -0.4446  0.4172
  124MOL    C6939675   2.305   4.992   2.621  0.3723 -0.2389  0.6763
  124MOL   Cl7039676   2.199   5.002   2.763  0.0064 -0.4180  0.3723
  124MOL    C7139677   2.367   5.107   2.574  0.0475  0.6189  0.1870
  124MOL    C7239678   2.463   5.101   2.472 -0.2732 -0.5535  0.2860
  124MOL    C7339679   2.501   4.981   2.414  0.2262  0.3161 -1.5977
  124MOL    C7439680   2.544   4.640   2.516  0.0069 -0.0461 -0.4834
  124MOL    H7539681   2.549   4.741   2.329  2.1426  0.9228  2.4991
  124MOL    H7639682   2.312   4.774   2.608  0.0129 -0.6447 -0.1460
  124MOL    H7739683   2.341   5.199   2.625  2.1517  2.5052 -2.0062
  124MOL    H7839684   2.507   5.192   2.435  0.5626 -0.4056  1.6129
  124MOL    H7939685   2.572   4.978   2.333  0.4120 -0.0816 -1.4215
  124MOL    H8039686   2.472   4.621   2.596 -0.7957  1.5742 -0.8044
  124MOL    H8139687   2.565   4.538   2.484  0.0753 -0.4249  0.7394
  124MOL    C8239688   2.681   4.702   2.562  0.1919 -0.4505  0.3953
  124MOL    C8339689   2.668   4.766   2.701 -0.3395  0.3072 -0.1642
  124MOL    C8439690   2.688   4.899   2.712 -0.2225 -0.5426 -0.4601
  124MOL    C8539691   2.686   4.963   2.838 -0.0075 -0.5837  0.2290
  124MOL   Cl8639692   2.716   5.133   2.846 -0.0274 -0.0600 -0.4291
  124MOL    C8739693   2.662   4.886   2.952 -0.3398 -0.6622  0.3180
  124MOL    C8839694   2.654   4.743   2.945 -0.4680 -0.1106  0.3257
  124MOL    C8939695   2.660   4.682   2.818 -0.3538  0.5584 -0.0087
  124MOL    C9039696   2.799   4.608   2.548  0.3142  0.2527  0.3049
  124MOL    H9139697   2.710   4.780   2.491  1.1049  1.7299  3.0798
  124MOL    H9239698   2.673   4.961   2.625 -1.0963  2.5002  1.7574
  124MOL    H9339699   2.657   4.932   3.049 -2.3919 -0.9812  0.3982
  124MOL    H9439700   2.642   4.687   3.036  0.9461  0.7409  1.0462
  124MOL    H9539701   2.665   4.576   2.799 -0.5295  0.3150  1.2669
  124MOL    H9639702   2.885   4.638   2.608  0.8682  0.2807 -0.5076
  124MOL    H9739703   2.781   4.511   2.594  2.3950 -0.0834  0.4558
  124MOL    C9839704   2.861   4.594   2.407  0.4146  0.5517 -0.0003
  124MOL    C9939705   3.011   4.571   2.423  0.5814  0.2950 -0.6626
  124MOL   C10039706   3.108   4.667   2.385 -1.0373 -0.5170  0.1643
  124MOL   C10139707   3.248   4.642   2.412 -0.3983  0.4098  0.8668
  124MOL  Cl10239708   3.365   4.749   2.343  0.2008 -0.4326 -0.0678
  124MOL   C10339709   3.286   4.521   2.474  0.6530 -0.7116  1.3873
  124MOL   C10439710   3.193   4.427   2.516  0.4791  0.9760  0.4838
  124MOL   C10539711   3.054   4.452   2.492  0.3356 -0.1339  0.1492
  124MOL   C10639712   2.782   4.480   2.321 -0.6399 -0.9036 -0.5635
  124MOL   H10739713   2.838   4.681   2.346  0.3521  0.7104  0.2497
  124MOL   H10839714   3.079   4.760   2.339  0.0020  1.0255  2.5366
  124MOL   H10939715   3.389   4.490   2.489  1.0465 -0.1635 -0.0884
  124MOL   H11039716   3.231   4.340   2.568  1.8111  2.0966  1.4199
  124MOL   H11139717   2.978   4.382   2.523 -1.6514  2.1819  0.6150
  124MOL   H11239718   2.784   4.394   2.387 -0.1223 -2.3475 -2.4128
  124MOL   H11339719   2.680   4.514   2.301 -0.9597 -1.3926  0.2197
  124MOL   C11439720   2.859   4.434   2.195 -0.1250 -0.0596  0.1009
  124MOL   C11539721   2.819   4.297   2.138  0.3491 -0.8795 -0.3687
  124MOL   C11639722   2.685   4.262   2.155 -0.4097 -0.1691 -0.1882
  124MOL   C11739723   2.642   4.139   2.103 -0.1968  0.2224  0.5771
  124MOL  Cl11839724   2.473   4.101   2.086 -0.0356 -0.4854  0.1692
  124MOL   C11939725   2.736   4.053   2.044  1.4479  0.1355 -0.2506
  124MOL   C12039726   2.868   4.087   2.027 -0.1599  0.2554  0.2301
  124MOL   C12139727   2.912   4.208   2.075 -0.3852  0.0839 -0.3132
  124MOL   C12239728   2.857   4.530   2.077  0.5607  0.0373  0.2430
  124MOL   H12339729   2.963   4.423   2.226  0.9003  2.6987 -2.1435
  124MOL   H12439730   2.619   4.322   2.217 -1.1100 -0.7896 -0.3385
  124MOL   H12539731   2.710   3.953   2.014 -0.8825  0.6150  0.0759
  124MOL   H12639732   2.941   4.016   1.991  1.5460  0.6191  2.8643
  124MOL   H12739733   3.012   4.242   2.056  0.5685 -2.4193  0.0844
  124MOL   H12839734   2.753   4.514   2.047  0.2188  0.6497  1.0675
  124MOL   H12939735   2.872   4.633   2.110  1.9592 -0.4617  1.1981
  124MOL   C13039736   2.959   4.513   1.960  0.1849 -1.1328  0.1579
  124MOL   C13139737   2.918   4.609   1.844 -0.4361  0.3700 -0.5215
  124MOL   C13239738   2.900   4.747   1.859  0.2543  0.1922  0.3059
  124MOL   C13339739   2.855   4.835   1.761 -0.0186 -0.5142  0.1670
  124MOL  Cl13439740   2.840   4.997   1.809  0.3032  0.0948 -0.4195
  124MOL   C13539741   2.834   4.782   1.633  0.6065  0.4660  0.3137
  124MOL   C13639742   2.860   4.644   1.605 -0.3404  0.0650 -0.1826
  124MOL   C13739743   2.898   4.556   1.714 -0.7115 -0.5682  0.1904
  124MOL   C13839744   3.105   4.520   2.002  0.1537 -0.7475 -0.2477
  124MOL   H13939745   2.939   4.412   1.925 -2.7977 -0.2705 -0.7960
  124MOL   H14039746   2.930   4.787   1.955 -1.7187  1.1968  0.5255
  124MOL   H14139747   2.789   4.846   1.558  1.7090 -0.5495 -1.2390
  124MOL   H14239748   2.829   4.607   1.508  1.9811  0.9022 -1.2897
  124MOL   H14339749   2.909   4.450   1.695  1.2905 -0.2094 -0.7796
  124MOL   H14439750   3.124   4.619   2.044  0.0294 -1.0311  0.4974
  124MOL   H14539751   3.121   4.448   2.082 -0.5015 -0.7075 -0.0761
  124MOL   C14639752   3.214   4.495   1.898 -0.1530 -0.1101  0.2304
  124MOL   C14739753   3.351   4.529   1.958  0.7098 -0.5617  0.5370
  124MOL   C14839754   3.405   4.444   2.059  0.0024  0.4269 -0.0539
  124MOL   C14939755   3.531   4.479   2.112  1.1004  0.0391  0.0451
  124MOL  Cl15039756   3.590   4.382   2.241 -0.0623 -0.0588 -0.0880
  124MOL   C15139757   3.594   4.605   2.090  0.7372  0.0855  0.0803
  124MOL   C15239758   3.545   4.684   1.982  0.2475  0.7445  0.0614
  124MOL   C15339759   3.422   4.647   1.920  0.3192  0.3160 -0.3600
  124MOL   C15439760   3.216   4.345   1.841  0.2221 -0.1062  0.4335
  124MOL   H15539761   3.204   4.566   1.815  0.1626 -0.5150 -0.1580
  124MOL   H15639762   3.359   4.352   2.093  1.9412 -0.7146 -0.4450
  124MOL   H15739763   3.676   4.631   2.155  0.7273 -0.8797  0.4903
  124MOL   H15839764   3.594   4.779   1.961 -0.2017  0.5777 -1.8943
  124MOL   H15939765   3.383   4.705   1.837 -0.0617  0.3777 -0.1416
  124MOL   H16039766   3.225   4.266   1.916  0.4571 -0.0495  0.4650
  124MOL   H16139767   3.114   4.316   1.815 -0.2055  0.6165  1.2628
  124MOL   C16239768   3.312   4.301   1.733  0.8409  0.4798  0.7295
  124MOL   C16339769   3.312   4.377   1.606 -0.4046 -0.3737  0.4046
  124MOL   C16439770   3.385   4.499   1.601 -0.1738 -0.2868  0.2889
  124MOL   C16539771   3.391   4.570   1.479  0.0112 -0.2244 -1.2610
  124MOL  Cl16639772   3.479   4.723   1.483 -0.1877  0.2999  0.0196
  124MOL   C16739773   3.320   4.527   1.366  0.0506  0.2051 -0.5091
  124MOL   C16839774   3.247   4.407   1.371 -0.0369 -0.0639  0.2864
  124MOL   C16939775   3.237   4.341   1.490  0.1555  0.5109  0.2921
  124MOL   C17039776   3.447   4.255   1.797  0.3649 -0.0978  0.4207
  124MOL   H17139777   3.276   4.210   1.685  1.2005  1.4397 -1.3968
  124MOL   H17239778   3.436   4.532   1.691 -0.4927 -0.4177  0.5220
  124MOL   H17339779   3.309   4.581   1.273  0.3891 -1.1180 -1.3304
  124MOL   H17439780   3.180   4.385   1.290 -0.4589  0.1809  0.5651
  124MOL   H17539781   3.187   4.245   1.490  1.1727 -0.0249  0.9918
  124MOL   H17639782   3.489   4.331   1.863  2.7829  0.7401 -2.0368
  124MOL   H17739783   3.426   4.168   1.860 -0.6245 -0.3745 -0.2816
  124MOL   C17839784   3.553   4.206   1.691 -0.3827 -0.2064  0.1809
  124MOL   C17939785   3.673   4.305   1.693  0.4638 -0.4482 -0.1836
  124MOL   C18039786   3.747   4.308   1.811  0.1503  0.1794  0.4788
  124MOL   C18139787   3.834   4.417   1.841 -0.8805  0.4527 -1.0666
  124MOL  Cl18239788   3.928   4.428   1.987 -0.0163  0.2465  0.3851
  124MOL   C18339789   3.853   4.511   1.741  0.0489  0.1639 -0.0836
  124MOL   C18439790   3.790   4.505   1.610  0.2801  0.5843 -0.8617
  124MOL   C18539791   3.692   4.403   1.593 -0.3870 -0.2000  0.1267
  124MOL   C18639792   3.596   4.056   1.702  0.0722 -0.2390 -0.2054
  124MOL   H18739793   3.521   4.213   1.587  2.8043 -3.2033 -1.1030
  124MOL   H18839794   3.749   4.235   1.890  2.6581  0.3873  0.6389
  124MOL   H18939795   3.937   4.577   1.738  1.3555 -1.5063 -1.2179
  124MOL   H19039796   3.808   4.576   1.531  0.6088  1.7859  0.2871
  124MOL   H19139797   3.630   4.410   1.505  0.0629  1.6238 -0.0721
  124MOL   H19239798   3.681   4.031   1.639  2.5865  0.0732  2.9244
  124MOL   H19339799   3.635   4.046   1.803 -0.4851 -1.0297 -0.0721
  124MOL   C19439800   3.491   3.948   1.668 -0.3262  0.3765 -0.0260
  124MOL   C19539801   3.555   3.840   1.583  0.3991 -0.4833  0.0713
  124MOL   C19639802   3.517   3.823   1.451 -0.7975  0.3347  0.0555
  124MOL   C19739803   3.591   3.733   1.370  0.9331 -0.1942  0.0462
  124MOL  Cl19839804   3.544   3.706   1.204 -0.0100 -0.1286 -0.3482
  124MOL   C19939805   3.695   3.659   1.425 -0.0924  0.4580  0.0556
  124MOL   C20039806   3.740   3.683   1.556  0.7157  0.3088 -0.4975
  124MOL   C20139807   3.662   3.771   1.636 -0.2359  0.1710 -0.3200
  124MOL   C20239808   3.427   3.883   1.799 -0.1854 -0.2433  0.0656
  124MOL   H20339809   3.409   3.987   1.608  1.2750  2.1551 -1.1486
  124MOL   H20439810   3.436   3.874   1.401 -0.6624  0.2446 -0.2558
  124MOL   H20539811   3.751   3.600   1.354  0.8346  4.2062 -2.4730
  124MOL   H20639812   3.819   3.624   1.602  0.9352 -0.4139 -1.7749
  124MOL   H20739813   3.695   3.782   1.738  2.6541  2.9230 -1.4373
  124MOL   H20839814   3.429   3.775   1.787  3.0935 -0.2653  0.2599
  124MOL   H20939815   3.495   3.891   1.884 -1.2406  3.4560  0.6657
  124MOL   C21039816   3.277   3.905   1.837 -0.0896 -0.4683 -0.4747
  124MOL   C21139817   3.194   3.885   1.717 -0.0769 -0.1948 -0.2214
  124MOL   C21239818   3.119   3.995   1.669 -0.1380 -0.2948 -0.5471
  124MOL   C21339819   3.038   3.983   1.556  0.3346  0.0489  0.9313
  124MOL  Cl21439820   2.935   4.108   1.501  0.1500  0.2212  0.1696
  124MOL   C21539821   3.037   3.854   1.485  0.6245 -0.4003 -0.3395
  124MOL   C21639822   3.115   3.746   1.546  0.8957 -0.0681  0.3441
  124MOL   C21739823   3.185   3.760   1.661 -0.5527  0.8067 -0.1247
  124MOL   C21839824   3.228   3.816   1.952  0.1391  0.6219 -0.3111
  124MOL   H21939825   3.269   4.008   1.869 -0.6235  0.2377 -2.7994
  124MOL   H22039826   3.121   4.089   1.723  3.1415 -1.0077  0.6513
  124MOL   H22139827   2.963   3.828   1.410  0.0801 -2.8223  0.9865
  124MOL   H22239828   3.111   3.652   1.493  2.0342  0.6816 -1.1262
  124MOL   H22339829   3.227   3.674   1.711 -0.7433  1.5982  1.4045
  124MOL   H22439830   3.121   3.807   1.966  0.4585 -0.4596  1.6676
  124MOL   H22539831   3.260   3.715   1.925 -0.1611  0.5814 -0.5120
  124MOL   C22639832   3.296   3.850   2.091 -0.9694  0.6897  0.7982
  124MOL   C22739833   3.219   3.946   2.174 -0.3222  0.6528 -0.5100
  124MOL   C22839834   3.100   3.908   2.237 -0.0303 -0.9422  0.0949
  124MOL   C22939835   3.040   3.999   2.324  0.0654  0.4036  0.6042
  124MOL  Cl23039836   2.889   3.959   2.405 -0.0138 -0.2240 -0.2396
  124MOL   C23139837   3.095   4.126   2.354  0.0117  0.1540 -0.3081
  124MOL   C23239838   3.216   4.169   2.292 -0.0178  0.6651  0.5857
  124MOL   C23339839   3.275   4.072   2.207  0.2964 -0.7294  0.8594
  124MOL   C23439840   3.342   3.724   2.173 -0.1564 -0.3351  0.2465
  124MOL   H23539841   3.386   3.905   2.065 -0.1741 -1.0575 -0.2486
  124MOL   H23639842   3.054   3.811   2.227 -1.1917 -0.2727 -1.3228
  124MOL   H23739843   3.028   4.180   2.420 -0.8521  1.5492 -2.3046
  124MOL   H23839844   3.266   4.264   2.308  1.4421  0.3855 -2.0904
  124MOL   H23939845   3.375   4.087   2.169  0.5955  0.3011  2.0129
  124MOL   H24039846   3.348   3.747   2.279  1.3394  0.4610  0.0012
  124MOL   H24139847   3.258   3.655   2.166  1.2905 -2.2495  1.2296
  124MOL   C24239848   3.472   3.652   2.129 -0.6893 -0.7260  0.0615
  124MOL   C24339849   3.594   3.747   2.126  0.1481 -0.4446 -0.8534
  124MOL   C24439850   3.708   3.728   2.033  0.2035  0.6307  0.1760
  124MOL   C24539851   3.812   3.831   2.014 -0.4731  0.4773  0.6004
  124MOL  Cl24639852   3.940   3.810   1.896 -0.0078 -0.0156 -0.0049
  124MOL   C24739853   3.803   3.943   2.100  0.8413 -0.2524  0.0302
  124MOL   C24839854   3.699   3.958   2.192 -1.3273  1.0453 -0.3295
  124MOL   C24939855   3.606   3.858   2.209  0.0199 -0.1894  0.0281
  124MOL   C25039856   3.492   3.533   2.219  0.0031 -0.3289 -0.3305
  124MOL   H25139857   3.447   3.616   2.030  0.6173  0.5503 -0.7494
  124MOL   H25239858   3.703   3.647   1.962 -0.4316  2.7184 -2.2445
  124MOL   H25339859   3.872   4.026   2.099  0.3105  0.2471  2.0930
  124MOL   H25439860   3.697   4.049   2.250  1.6692  0.9252  0.0124
  124MOL   H25539861   3.526   3.874   2.280 -0.6099  0.1913 -0.7615
  124MOL   H25639862   3.599   3.513   2.209  0.1250  0.4299 -0.5924
  124MOL   H25739863   3.464   3.551   2.323  2.7827 -1.6778  0.7143
  124MOL   C25839864   3.411   3.412   2.173 -0.1304  0.7443 -0.3453
  124MOL   C25939865   3.441   3.366   2.032 -0.2562  0.9031 -0.1744
  124MOL   C26039866   3.335   3.369   1.935 -0.1465 -0.1904  0.1400
  124MOL   C26139867   3.357   3.349   1.798 -0.5754 -0.2234 -0.1593
  124MOL  Cl26239868   3.232   3.378   1.680 -0.1085  0.2959 -0.3213
  124MOL   C26339869   3.481   3.291   1.759 -0.2034  0.1243  0.3877
  124MOL   C26439870   3.580   3.272   1.862 -0.5569 -0.3958 -0.1230
  124MOL   C26539871   3.568   3.318   1.994 -0.9096  0.2841 -0.6764
  124MOL   C26639872   3.387   3.293   2.272  0.0286  0.0908 -0.1792
  124MOL   H26739873   3.312   3.459   2.175 -0.6017 -0.2433  1.6030
  124MOL   H26839874   3.236   3.402   1.962 -0.6440 -0.7044 -1.0452
  124MOL   H26939875   3.503   3.273   1.655 -3.0616  1.4181 -0.4998
  124MOL   H27039876   3.680   3.243   1.835 -1.7314 -3.0836 -1.6901
  124MOL   H27139877   3.643   3.299   2.069 -0.3806 -1.3940 -1.6066
  124MOL   H27239878   3.348   3.213   2.209 -0.1686  0.3751 -0.4182
  124MOL   H27339879   3.482   3.251   2.303 -0.0620 -0.0250 -0.0562
  124MOL   C27439880   3.293   3.316   2.392 -0.1025  0.2236  0.3425
  124MOL   C27539881   3.162   3.374   2.351 -0.3392 -0.1731  0.0243
  124MOL   C27639882   3.073   3.295   2.268  0.9229  1.1025 -0.2093
  124MOL   C27739883   2.940   3.338   2.245  0.4008 -0.3134 -0.4351
  124MOL  Cl27839884   2.821   3.278   2.134 -0.0246  0.0218  0.3517
  124MOL   C27939885   2.902   3.462   2.308  0.6220 -0.9799  0.1861
  124MOL   C28039886   2.989   3.535   2.391 -0.7954 -0.0474  0.2877
  124MOL   C28139887   3.119   3.493   2.403  0.2538  0.6809 -0.9822
  124MOL   C28239888   3.278   3.189   2.485 -0.2807  0.3796  0.3833
  124MOL   H28339889   3.353   3.388   2.447 -0.5158  0.4072  0.5570
  124MOL   H28439890   3.109   3.212   2.210 -1.3491 -0.4476  0.4995
  124MOL   H28539891   2.800   3.485   2.280  1.9858  0.6009 -3.8758
  124MOL   H28639892   2.958   3.625   2.444 -0.8139  1.2399 -1.8341
  124MOL   H28739893   3.193   3.546   2.461  0.3171 -0.6592  0.1942
  124MOL   H28839894   3.207   3.207   2.566 -0.9746 -3.2284  0.6447
  124MOL   H28939895   3.245   3.106   2.422  2.0039 -0.8949  0.8099
  124MOL   C29039896   3.414   3.160   2.558 -0.1394  0.4419 -0.8704
  124MOL   C29139897   3.442   3.266   2.669 -0.0774 -0.8055  0.9275
  124MOL   C29239898   3.392   3.264   2.804 -0.1728 -0.0449 -0.2698
  124MOL   C29339899   3.431   3.363   2.900  0.0538  0.5217  0.2506
  124MOL  Cl29439900   3.386   3.334   3.064  0.0987 -0.0811 -0.3151
  124MOL   C29539901   3.511   3.472   2.865  0.6150 -0.3378  0.6088
  124MOL   C29639902   3.550   3.483   2.726  0.8628 -0.2525  0.2203
  124MOL   C29739903   3.519   3.381   2.633 -0.4060 -0.0122 -0.3132
  124MOL   C29839904   3.410   3.020   2.618 -0.2564 -0.7776  0.3475
  124MOL   H29939905   3.499   3.168   2.489  0.7250  1.6305  0.3032
  124MOL   H30039906   3.340   3.172   2.826 -0.8509 -0.0852 -1.9620
  124MOL   H30139907   3.533   3.546   2.940  0.6646  1.3446 -1.0361
  124MOL   H30239908   3.602   3.570   2.689 -0.4250 -0.7996 -3.0984
  124MOL   H30339909   3.558   3.397   2.534  1.4522  1.7514  0.6840
  124MOL   H30439910   3.500   3.009   2.679 -0.3374 -0.0251  0.6108
  124MOL   H30539911   3.318   3.002   2.673  2.2076 -0.8233  4.6442
  124MOL   C30639912   3.416   2.906   2.514 -0.9288 -0.5082  0.9371
  124MOL   C30739913   3.521   2.933   2.406  0.1901  0.5083  0.3471
  124MOL   C30839914   3.483   2.928   2.273 -0.1786  0.1728  0.1332
  124MOL   C30939915   3.580   2.940   2.172  0.4042  0.9306  0.2094
  124MOL  Cl31039916   3.530   2.971   2.012  0.1453  0.6184  0.1811
  124MOL   C31139917   3.715   2.956   2.203  0.0476 -0.1602  0.3816
  124MOL   C31239918   3.755   2.962   2.342  0.4971 -0.0347 -0.0242
  124MOL   C31339919   3.659   2.947   2.443  0.9866  0.0878  0.0653
  124MOL   C31439920   3.448   2.763   2.569 -0.3342 -0.1363 -0.1696
  124MOL   H31539921   3.322   2.912   2.459 -0.8039 -1.2256  0.6392
  124MOL   H31639922   3.382   2.936   2.235  0.0455 -0.2547 -0.5428
  124MOL   H31739923   3.789   2.971   2.125 -0.8855  0.8468 -0.3167
  124MOL   H31839924   3.856   2.976   2.379  0.6546  0.0102 -0.4663
  124MOL   H31939925   3.696   2.952   2.544  0.5108 -2.4393  0.4081
  124MOL   H32039926   3.550   2.746   2.602 -0.4704  2.9198  2.0083
  124MOL   H32139927   3.382   2.739   2.652  0.4022 -0.6972  0.2541
  124MOL   H32239928   3.422   2.682   2.501  0.9363 -2.2544  1.8091
  125MOL     C139929   7.537   2.058   6.000 -0.0337  0.3024 -0.8347
  125MOL     C239930   7.606   2.194   6.016 -0.2005  0.1636 -0.0209
  125MOL     C339931   7.669   2.256   5.904 -0.5621 -0.5564 -0.3666
  125MOL     C439932   7.720   2.384   5.918 -0.2929  0.1092  0.8625
  125MOL    Cl539933   7.797   2.463   5.786  0.1604  0.1357 -0.1925
  125MOL     C639934   7.721   2.452   6.041 -0.3933  0.8016  0.6933
  125MOL     C739935   7.670   2.383   6.148  0.1800  0.3226 -0.0742
  125MOL     C839936   7.601   2.260   6.133  0.0608 -1.0139 -0.1131
  125MOL     C939937   7.379   2.062   6.030 -1.4584 -0.4817 -0.5047
  125MOL    H1039938   7.587   1.996   6.074  0.5282  2.6422  0.8145
  125MOL    H1139939   7.664   2.207   5.808 -1.7735  0.5050 -0.8672
  125MOL    H1239940   7.775   2.544   6.059 -1.4050  1.4643  0.3458
  125MOL    H1339941   7.666   2.442   6.239 -1.2299 -1.3448  0.9738
  125MOL    H1439942   7.546   2.211   6.212  0.9393 -0.1493  1.0657
  125MOL    H1539943   7.370   2.083   6.136  0.2433  0.0356 -0.4537
  125MOL    H1639944   7.335   2.152   5.986  0.8959  1.7488  1.5868
  125MOL    H1739945   7.556   2.013   5.903 -0.8980 -0.0319 -0.8532
  125MOL    C1839946   7.295   1.943   5.985 -0.0747  0.1886 -0.6427
  125MOL    C1939947   7.155   1.952   6.047 -0.6178  0.4459  0.1980
  125MOL    C2039948   7.068   2.056   6.009  0.1283  0.5824  0.5564
  125MOL    C2139949   6.938   2.070   6.065 -0.2520 -0.1052 -0.2391
  125MOL   Cl2239950   6.841   2.208   6.026  0.1547  0.2508 -0.1835
  125MOL    C2339951   6.881   1.966   6.142  0.0342  0.4016  0.0153
  125MOL    C2439952   6.969   1.861   6.178  0.0964 -0.6175  0.0161
  125MOL    C2539953   7.105   1.850   6.131 -0.2302 -0.1938  0.5554
  125MOL    C2639954   7.294   1.922   5.830  0.3409  0.5464 -0.1262
  125MOL    H2739955   7.332   1.850   6.029  0.4157  0.8613  0.3542
  125MOL    H2839956   7.080   2.128   5.929  0.7229  1.4823  1.4440
  125MOL    H2939957   6.780   1.968   6.180  0.3200  0.0521  0.8014
  125MOL    H3039958   6.932   1.796   6.257  2.1770  0.8081  2.2566
  125MOL    H3139959   7.165   1.769   6.169 -0.5286 -0.8065 -0.2506
  125MOL    H3239960   7.285   2.018   5.778 -0.8089  0.5105 -0.0046
  125MOL    H3339961   7.399   1.896   5.813  0.2784  0.4505 -0.3686
  125MOL    C3439962   7.192   1.819   5.757 -0.1389 -0.1444 -0.0075
  125MOL    C3539963   7.060   1.887   5.716 -0.0486 -0.1438 -0.0403
  125MOL    C3639964   7.051   1.988   5.616 -0.5336  0.0110 -0.0463
  125MOL    C3739965   6.921   2.037   5.573 -1.0927  0.1265  0.8087
  125MOL   Cl3839966   6.903   2.135   5.437  0.0572  0.0189  0.3499
  125MOL    C3939967   6.801   2.001   5.637 -0.4942  0.3001  0.2737
  125MOL    C4039968   6.815   1.902   5.740  0.3772  0.1567  0.0204
  125MOL    C4139969   6.937   1.848   5.777 -0.1453 -0.3634 -0.5464
  125MOL    C4239970   7.256   1.756   5.630 -0.0622  0.3041 -0.6696
  125MOL    H4339971   7.175   1.736   5.825 -2.9926  0.4573  0.0578
  125MOL    H4439972   7.143   2.010   5.564 -0.0615  0.5795  1.0223
  125MOL    H4539973   6.700   2.027   5.610  0.7575  2.9387 -2.1268
  125MOL    H4639974   6.729   1.864   5.792  2.0102 -0.1273  2.6480
  125MOL    H4739975   6.931   1.782   5.863  1.9926  1.2386  0.8650
  125MOL    H4839976   7.189   1.682   5.585 -1.0076  1.2069 -0.7625
  125MOL    H4939977   7.267   1.837   5.558  0.7435  0.7040 -0.0991
  125MOL    C5039978   7.383   1.671   5.646  0.1073 -0.4993  0.1524
  125MOL    C5139979   7.380   1.541   5.569  0.1151  0.0037  0.4120
  125MOL    C5239980   7.389   1.544   5.430  0.8769  0.3781 -0.2660
  125MOL    C5339981   7.403   1.429   5.358 -0.3764 -0.1019  0.4664
  125MOL   Cl5439982   7.408   1.427   5.189 -0.1080  0.0126  0.2583
  125MOL    C5539983   7.404   1.311   5.423 -0.0906 -0.1351  0.5590
  125MOL    C5639984   7.382   1.305   5.562 -0.3722  0.1476  0.6228
  125MOL    C5739985   7.376   1.421   5.637 -0.1397 -0.2764 -0.1002
  125MOL    C5839986   7.504   1.761   5.596 -0.2148  0.4001 -0.8472
  125MOL    H5939987   7.391   1.646   5.752  0.4404 -1.4869 -0.0966
  125MOL    H6039988   7.382   1.637   5.376  0.8742 -0.0336 -0.9859
  125MOL    H6139989   7.430   1.226   5.361 -0.3156  0.8919 -0.9685
  125MOL    H6239990   7.392   1.206   5.605  3.2423  0.4923  0.7525
  125MOL    H6339991   7.374   1.423   5.745 -1.2737  1.0263 -0.1374
  125MOL    H6439992   7.529   1.761   5.490 -0.9216 -1.5112 -1.0307
  125MOL    H6539993   7.487   1.866   5.618 -0.1035  0.6935 -2.1395
  125MOL    C6639994   7.634   1.731   5.670 -0.1624  0.9339 -0.5065
  125MOL    C6739995   7.697   1.605   5.612 -0.7184  0.1817 -0.0910
  125MOL    C6839996   7.692   1.495   5.698  0.6197  0.0102 -0.5595
  125MOL    C6939997   7.757   1.378   5.654 -1.2039  0.3306 -0.0912
  125MOL   Cl7039998   7.752   1.226   5.745  0.1725  0.0820  0.1024
  125MOL    C7139999   7.822   1.372   5.531 -0.0492  0.3937  0.6147
  125MOL    C7240000   7.824   1.482   5.449  0.5286  0.5418  0.5541
  125MOL    C7340001   7.760   1.606   5.488 -0.2234 -0.5711 -0.4476
  125MOL    C7440002   7.733   1.850   5.655 -0.2078  0.5897  0.4553
  125MOL    H7540003   7.610   1.712   5.775  0.8484 -2.4319 -0.8414
  125MOL    H7640004   7.647   1.498   5.795  2.3958 -1.4123  0.3457
  125MOL    H7740005   7.879   1.284   5.504  1.5960  1.7800 -0.6094
  125MOL    H7840006   7.876   1.473   5.355 -0.9032  0.1395 -0.2088
  125MOL    H7940007   7.761   1.700   5.435  1.3734  1.0113  2.2515
  125MOL    H8040008   7.752   1.872   5.550 -1.5505  0.7085  0.2193
  125MOL    H8140009   7.676   1.934   5.693 -3.6881 -1.1098 -0.7700
  125MOL    C8240010   7.866   1.828   5.725 -0.2448  0.6523 -0.0122
  125MOL    C8340011   7.969   1.933   5.689  0.1591  0.2458  0.4358
  125MOL    C8440012   8.103   1.898   5.660 -0.1609 -0.1695  0.1829
  125MOL    C8540013   8.195   1.994   5.618 -0.6753  0.6903  0.7400
  125MOL   Cl8640014   8.359   1.958   5.602 -0.1998 -0.0269 -0.5145
  125MOL    C8740015   8.151   2.124   5.602  0.4238  0.5605  0.2348
  125MOL    C8840016   8.019   2.159   5.628  0.5748 -0.3100  0.2859
  125MOL    C8940017   7.933   2.066   5.682  0.3786 -0.1033  0.5337
  125MOL    C9040018   7.860   1.817   5.878  0.6820  1.1242 -0.2845
  125MOL    H9140019   7.903   1.732   5.689 -1.7556 -0.0582  0.3147
  125MOL    H9240020   8.141   1.797   5.667 -1.0810 -0.4573  1.2327
  125MOL    H9340021   8.223   2.201   5.577  0.7495  0.2923  0.3375
  125MOL    H9440022   7.991   2.263   5.630  0.9097 -0.2290  0.7532
  125MOL    H9540023   7.836   2.094   5.720  0.3096  0.3716  0.0090
  125MOL    H9640024   7.910   1.905   5.920 -3.2395  3.4572 -0.2853
  125MOL    H9740025   7.755   1.820   5.906  0.2776  0.6866 -1.7323
  125MOL    C9840026   7.914   1.689   5.946  0.3652  0.0221  0.2901
  125MOL    C9940027   8.056   1.650   5.896  0.6438  0.8528  0.7515
  125MOL   C10040028   8.171   1.724   5.937 -0.3386  0.1148  0.2121
  125MOL   C10140029   8.299   1.676   5.895 -0.1095  0.0321 -0.0049
  125MOL  Cl10240030   0.015   1.743   5.962 -0.3571 -0.2879  0.4202
  125MOL   C10340031   8.308   1.562   5.814  0.4337  0.2617  0.7608
  125MOL   C10440032   8.198   1.495   5.766  0.3963  0.8463  0.4550
  125MOL   C10540033   8.070   1.538   5.811 -0.3615  0.2188 -0.4006
  125MOL   C10640034   7.910   1.704   6.104 -0.4832  0.7086 -0.0736
  125MOL   H10740035   7.850   1.605   5.920 -0.0358  0.1385  0.8675
  125MOL   H10840036   8.176   1.809   6.004  2.7366  0.6580 -0.6439
  125MOL   H10940037   8.406   1.530   5.781  0.3069  1.6011 -1.0118
  125MOL   H11040038   8.213   1.406   5.707  0.5225  0.4393  1.1018
  125MOL   H11140039   7.982   1.483   5.784 -0.9757  1.0231 -0.0746
  125MOL   H11240040   7.969   1.619   6.140  1.0148  1.3296 -1.0169
  125MOL   H11340041   7.973   1.787   6.134  1.3688 -0.3416 -0.9234
  125MOL   C11440042   7.776   1.693   6.177  0.6660 -0.1436  0.5562
  125MOL   C11540043   7.682   1.594   6.111  0.6596 -0.4207 -1.0084
  125MOL   C11640044   7.548   1.628   6.082  0.3511 -0.3378  0.1024
  125MOL   C11740045   7.461   1.530   6.029  0.2254  0.6898 -0.2965
  125MOL  Cl11840046   7.294   1.559   5.987  0.1003  0.3026  0.0664
  125MOL   C11940047   7.513   1.403   5.996  0.4423 -0.4713  0.1484
  125MOL   C12040048   7.646   1.370   6.027  0.0018 -0.0380 -0.2108
  125MOL   C12140049   7.726   1.464   6.084  0.1422  0.3470  0.1940
  125MOL   C12240050   7.794   1.663   6.330  0.1825  0.2479 -0.5803
  125MOL   H12340051   7.725   1.789   6.168 -2.1457 -1.7025 -0.9758
  125MOL   H12440052   7.506   1.722   6.113 -0.0752 -1.7236  3.9414
  125MOL   H12540053   7.441   1.331   5.961 -0.8355  0.6257  0.4606
  125MOL   H12640054   7.678   1.268   6.015 -2.2157 -0.8919  0.9207
  125MOL   H12740055   7.830   1.446   6.107 -0.1168 -1.3052  0.1433
  125MOL   H12840056   7.699   1.636   6.377  0.9926 -0.4382  0.6649
  125MOL   H12940057   7.851   1.570   6.336 -1.6028 -0.8405 -0.1037
  125MOL   C13040058   7.871   1.764   6.410  0.7009  0.2340  0.3090
  125MOL   C13140059   7.799   1.896   6.415  0.2186 -0.4099 -0.0889
  125MOL   C13240060   7.660   1.909   6.439  0.1567  0.9205  0.7874
  125MOL   C13340061   7.613   2.042   6.431  0.0815 -0.6837 -1.0866
  125MOL  Cl13440062   7.440   2.052   6.434 -0.1173 -0.1623  0.1523
  125MOL   C13540063   7.698   2.148   6.412  0.2481 -0.0060 -0.9992
  125MOL   C13640064   7.838   2.134   6.419  0.2297  0.0747 -0.0507
  125MOL   C13740065   7.889   2.008   6.416 -0.4575  0.2970  0.0581
  125MOL   C13840066   7.903   1.724   6.560  0.4668  0.4397  0.2004
  125MOL   H13940067   7.960   1.779   6.349  0.4728 -0.7579 -0.2720
  125MOL   H14040068   7.597   1.826   6.465  2.4645 -1.0681  0.2413
  125MOL   H14140069   7.671   2.251   6.397 -0.8799 -0.1426  0.0149
  125MOL   H14240070   7.898   2.224   6.420 -0.3613  0.4694  1.2423
  125MOL   H14340071   7.997   2.001   6.408 -0.4839  0.6871 -0.6840
  125MOL   H14440072   7.929   1.807   6.625  3.6276  0.3312 -0.7940
  125MOL   H14540073   7.818   1.675   6.606  1.0726 -0.6772  0.1521
  125MOL   C14640074   8.026   1.634   6.582 -0.4257 -1.0601  0.0537
  125MOL   C14740075   8.152   1.691   6.514 -0.4812  0.1226  0.4912
  125MOL   C14840076   8.234   1.794   6.580 -0.3347  0.1033  0.3294
  125MOL   C14940077   8.350   1.843   6.509  0.0123 -0.6143  0.1003
  125MOL  Cl15040078   0.009   1.975   6.582  0.1606  0.0537  0.3927
  125MOL   C15140079   8.389   1.785   6.386  0.3735 -0.1990  0.0554
  125MOL   C15240080   8.307   1.683   6.327 -0.3491  0.4689  0.3461
  125MOL   C15340081   8.190   1.635   6.391 -0.1136 -0.3269  0.0143
  125MOL   C15440082   8.060   1.598   6.730 -0.6497  0.6257 -0.1331
  125MOL   H15540083   8.006   1.537   6.536 -0.3137 -0.2713 -1.6853
  125MOL   H15640084   8.215   1.842   6.675 -0.5969  0.4700  0.0939
  125MOL   H15740085   0.037   1.821   6.326 -0.4588  0.2425 -0.8490
  125MOL   H15840086   8.337   1.652   6.228 -2.1694 -1.5967  0.4007
  125MOL   H15940087   8.128   1.561   6.342 -0.9694  0.2951  0.1476
  125MOL   H16040088   8.077   1.697   6.775 -1.1434  0.5009  0.3337
  125MOL   H16140089   7.979   1.545   6.779  0.7321 -1.2274  0.1960
  125MOL   C16240090   8.192   1.519   6.757 -0.2918  0.2747  0.0746
  125MOL   C16340091   8.232   1.536   6.905 -0.2090 -0.9445 -0.3650
  125MOL   C16440092   8.146   1.482   7.000 -0.2100 -0.1336 -0.2751
  125MOL   C16540093   8.186   1.464   7.133 -0.0603 -0.2133  0.5653
  125MOL  Cl16640094   8.074   1.391   7.254 -0.3849  0.2393  0.0931
  125MOL   C16740095   8.318   1.493   7.163 -0.0773  0.2655  0.0265
  125MOL   C16840096   8.406   1.560   7.077  0.7076 -0.9054  0.8647
  125MOL   C16940097   8.361   1.585   6.945 -0.5031 -0.4352  0.0735
  125MOL   C17040098   8.164   1.374   6.718 -0.4340 -0.0109 -0.0076
  125MOL   H17140099   8.271   1.562   6.695  0.9977  2.0773  2.8658
  125MOL   H17240100   8.049   1.451   6.965  0.5722 -1.3941 -1.3595
  125MOL   H17340101   8.356   1.478   7.263  3.7936  0.3836 -1.3562
  125MOL   H17440102   0.073   1.587   7.099  0.9543  0.8748 -2.2892
  125MOL   H17540103   8.429   1.631   6.874 -2.5162  5.0178  1.3918
  125MOL   H17640104   8.108   1.321   6.795 -0.1017  1.7539  1.4665
  125MOL   H17740105   8.090   1.359   6.639 -0.9236  0.2977  0.3886
  125MOL   C17840106   8.285   1.287   6.680 -0.4448 -0.2923 -0.3976
  125MOL   C17940107   8.241   1.142   6.676  0.7727  0.1292  0.1020
  125MOL   C18040108   8.183   1.075   6.569 -0.1035  0.2832 -0.0033
  125MOL   C18140109   8.140   0.943   6.574 -0.1537 -0.6266  0.9376
  125MOL  Cl18240110   8.057   0.859   6.444 -0.0399  0.4720  0.1825
  125MOL   C18340111   8.159   0.873   6.693  0.2344 -0.4993 -0.0166
  125MOL   C18440112   8.221   0.927   6.803  0.0295  0.3097 -0.0862
  125MOL   C18540113   8.258   1.063   6.794  1.0517 -0.3973  0.5132
  125MOL   C18640114   8.344   1.336   6.543  0.1524  0.4199 -0.9480
  125MOL   H18740115   8.363   1.304   6.755 -1.3262  2.6661 -0.1031
  125MOL   H18840116   8.180   1.136   6.480  1.0566  0.5875  0.1538
  125MOL   H18940117   8.124   0.771   6.699  1.0274 -0.7953 -0.3535
  125MOL   H19040118   8.247   0.876   6.894  1.5714  3.4304  1.3160
  125MOL   H19140119   8.296   1.107   6.885  1.3947 -0.0227  0.1877
  125MOL   H19240120   8.253   1.330   6.484 -1.3811  0.2071  1.3984
  125MOL   H19340121   8.363   1.443   6.533  0.0064  0.2230 -3.6330
  125MOL   C19440122   0.020   1.255   6.471 -0.1344 -0.3008  0.3188
  125MOL   C19540123   0.047   1.303   6.326  0.5757  0.9797  0.6360
  125MOL   C19640124   0.119   1.420   6.311  0.8122  0.1612 -0.2348
  125MOL   C19740125   0.145   1.469   6.183 -0.2899  0.7924 -0.1079
  125MOL  Cl19840126   0.248   1.611   6.169 -0.2199  0.4358 -0.2678
  125MOL   C19940127   0.110   1.397   6.068 -0.0982  0.3074 -0.0705
  125MOL   C20040128   0.033   1.282   6.084  0.0322  0.9208 -0.2576
  125MOL   C20140129   8.434   1.232   6.212  0.3185 -0.1515  0.4854
  125MOL   C20240130   0.142   1.251   6.560  0.2929  0.3024  0.0474
  125MOL   H20340131   8.414   1.156   6.452  0.0808 -0.5139  0.9772
  125MOL   H20440132   0.146   1.477   6.399  0.8534  0.4522 -0.4335
  125MOL   H20540133   0.139   1.437   5.972  1.6266 -0.0461  0.2718
  125MOL   H20640134   0.020   1.234   5.989  0.9883 -0.3326  0.2316
  125MOL   H20740135   8.373   1.145   6.227  0.1100  0.0685  0.9209
  125MOL   H20840136   0.224   1.266   6.491  1.2210 -0.0535  1.0485
  125MOL   H20940137   0.150   1.332   6.632 -0.2148 -0.7728  1.3486
  125MOL   C21040138   0.175   1.109   6.631  0.5295  0.2153 -0.1719
  125MOL   C21140139   0.143   0.987   6.543 -0.2663 -0.1442  0.3161
  125MOL   C21240140   0.157   0.985   6.400  0.2174 -0.3260  0.1951
  125MOL   C21340141   0.117   0.871   6.334  0.1621 -0.2149  0.1850
  125MOL  Cl21440142   0.102   0.874   6.165  0.1932 -0.4000 -0.2648
  125MOL   C21540143   0.064   0.755   6.400  1.1166  0.7378 -0.5923
  125MOL   C21640144   0.058   0.760   6.536 -0.4614  0.8079 -0.5022
  125MOL   C21740145   0.103   0.868   6.609 -0.1756 -0.4157 -0.2820
  125MOL   C21840146   0.316   1.094   6.702 -0.0868  0.8197  0.3208
  125MOL   H21940147   0.107   1.103   6.716 -2.9696  0.0776 -2.8712
  125MOL   H22040148   0.187   1.072   6.343 -0.1961 -0.0270  0.4272
  125MOL   H22140149   0.036   0.666   6.345 -1.8737 -0.0295  2.0458
  125MOL   H22240150   0.032   0.675   6.596  0.2333  0.0785 -1.2318
  125MOL   H22340151   0.079   0.868   6.714 -0.1710  2.5044 -0.2495
  125MOL   H22440152   0.341   0.993   6.734 -0.2339  0.3691 -0.9526
  125MOL   H22540153   0.391   1.113   6.625  0.8195 -1.0633  0.7394
  125MOL   C22640154   0.330   1.183   6.830 -0.7502  0.0380  1.2696
  125MOL   C22740155   0.224   1.136   6.937 -0.1133 -0.5717  0.3415
  125MOL   C22840156   0.239   1.004   6.979 -0.4807 -0.6550 -0.9958
  125MOL   C22940157   0.144   0.953   7.074  0.1729  0.2663 -0.9147
  125MOL  Cl23040158   0.155   0.791   7.128 -0.2981  0.1188 -0.5069
  125MOL   C23140159   0.042   1.037   7.122 -0.1540  0.1807 -0.4726
  125MOL   C23240160   0.036   1.167   7.077 -0.0576  0.0501 -0.1324
  125MOL   C23340161   0.119   1.218   6.981  0.1335 -0.5244  0.3165
  125MOL   C23440162   0.470   1.186   6.894  0.1207  0.1242 -0.4411
  125MOL   H23540163   0.310   1.286   6.803 -0.0687 -0.1605 -0.0204
  125MOL   H23640164   0.325   0.945   6.950  0.7659  0.2806  0.6713
  125MOL   H23740165   8.401   0.998   7.189  1.3809 -0.3073  1.0414
  125MOL   H23840166   8.393   1.235   7.107 -0.1551 -0.3554  0.5469
  125MOL   H23940167   0.111   1.322   6.955  2.3660 -0.5012 -0.3037
  125MOL   H24040168   0.509   1.088   6.922  1.7734  0.5658 -1.1336
  125MOL   H24140169   0.526   1.242   6.820  0.6284  1.7324  1.1222
  125MOL   C24240170   0.469   1.281   7.020  0.0809  0.1653  0.2513
  125MOL   C24340171   0.447   1.208   7.150 -0.1016 -0.1597  0.4018
  125MOL   C24440172   0.326   1.238   7.220 -0.1723  0.2569  0.4082
  125MOL   C24540173   0.290   1.170   7.339  0.1463  0.1285 -0.2789
  125MOL  Cl24640174   0.146   1.200   7.425 -0.0203 -0.1694 -0.0194
  125MOL   C24740175   0.375   1.067   7.388  0.5202  0.3198  0.1139
  125MOL   C24840176   0.492   1.034   7.322 -0.6175  0.3753  0.1154
  125MOL   C24940177   0.526   1.099   7.202 -0.2301 -0.1243 -0.0611
  125MOL   C25040178   0.608   1.355   7.027  0.7275  0.6087 -0.1251
  125MOL   H25140179   0.401   1.366   7.009  0.0577  0.1013 -0.1059
  125MOL   H25240180   0.254   1.302   7.173 -0.4874 -0.9146 -0.6956
  125MOL   H25340181   0.352   1.019   7.481  1.3499  2.5064  1.4767
  125MOL   H25440182   0.550   0.957   7.370  0.6622  1.0246 -0.3756
  125MOL   H25540183   0.615   1.058   7.155 -0.1456  0.4106 -0.3715
  125MOL   H25640184   0.696   1.292   7.033  0.6088  0.4636  0.1149
  125MOL   H25740185   0.618   1.400   6.929  0.7029  0.3798 -0.2322
  125MOL   C25840186   0.627   1.463   7.144  0.4262 -0.8878 -0.2108
  125MOL   C25940187   0.676   1.400   7.271  0.2726 -0.0569  0.9953
  125MOL   C26040188   0.805   1.355   7.274  0.2273  0.0931 -0.1343
  125MOL   C26140189   0.861   1.293   7.391 -0.4325  0.6624  0.0053
  125MOL  Cl26240190   1.022   1.235   7.383  0.4776 -0.1135  0.0358
  125MOL   C26340191   0.781   1.287   7.505 -0.5726 -0.0605 -0.0375
  125MOL   C26440192   0.650   1.342   7.507  0.0325 -0.0684  0.6811
  125MOL   C26540193   0.597   1.398   7.387  0.8570  0.2022 -0.6171
  125MOL   C26640194   0.704   1.586   7.100 -0.1238  0.9494 -0.6848
  125MOL   H26740195   0.529   1.502   7.171  0.6422 -0.6076  0.1795
  125MOL   H26840196   0.862   1.373   7.184 -1.0231 -0.7480 -1.1317
  125MOL   H26940197   0.820   1.244   7.596  2.3463  0.0417 -1.2126
  125MOL   H27040198   0.580   1.338   7.589  0.5821 -0.6941  1.1349
  125MOL   H27140199   0.502   1.450   7.386  1.1908  0.8595  0.4146
  125MOL   H27240200   0.765   1.613   7.187  1.9634 -1.2471 -1.3945
  125MOL   H27340201   0.768   1.566   7.014  0.4674  1.3089 -0.3280
  125MOL   C27440202   0.610   1.709   7.079  0.1435 -0.3794 -0.7548
  125MOL   C27540203   0.686   1.843   7.082 -0.2449  0.6796  0.1776
  125MOL   C27640204   0.685   1.938   7.190  0.0952 -0.8001  0.5653
  125MOL   C27740205   0.764   2.054   7.186 -0.5252 -0.4121  0.2287
  125MOL  Cl27840206   0.775   2.155   7.317  0.3138  0.3170 -0.0870
  125MOL   C27940207   0.842   2.081   7.070 -0.7244 -0.1066  0.3411
  125MOL   C28040208   0.839   1.994   6.961  0.4813  0.0391  0.4091
  125MOL   C28140209   0.762   1.876   6.968 -0.5947  0.1437 -0.7909
  125MOL   C28240210   0.535   1.681   6.952 -0.4731  0.2080  0.3137
  125MOL   H28340211   0.546   1.713   7.167 -0.2157  1.6189 -1.0729
  125MOL   H28440212   0.627   1.909   7.276 -0.6132 -2.9819 -0.6032
  125MOL   H28540213   0.903   2.168   7.051 -0.5678 -0.0822  0.9539
  125MOL   H28640214   0.897   2.014   6.872 -0.8772  2.6082  0.0628
  125MOL   H28740215   0.773   1.799   6.893  0.6184  0.2739 -0.7511
  125MOL   H28840216   0.607   1.675   6.870 -1.0775 -1.3998 -0.1159
  125MOL   H28940217   0.481   1.587   6.963  0.7937 -0.5175  0.4492
  125MOL   C29040218   0.443   1.791   6.905  0.9262 -0.1174 -0.3704
  125MOL   C29140219   0.374   1.751   6.773 -0.0578  0.1844  0.2286
  125MOL   C29240220   0.394   1.840   6.661  0.7748 -0.0620 -0.0438
  125MOL   C29340221   0.334   1.810   6.538 -0.0773 -0.0962  0.4315
  125MOL  Cl29440222   0.357   1.927   6.410 -0.3767  0.1163 -0.0337
  125MOL   C29540223   0.246   1.705   6.527  0.0666  0.1286  0.5547
  125MOL   C29640224   0.218   1.625   6.639 -0.2488 -0.4039 -0.0666
  125MOL   C29740225   0.289   1.642   6.760 -0.3621  0.1077  0.2068
  125MOL   C29840226   0.346   1.822   7.023  1.0086  0.7218 -0.2024
  125MOL   H29940227   0.508   1.874   6.878 -0.4716  0.9347 -0.5980
  125MOL   H30040228   0.470   1.916   6.666  0.4811  0.1844  0.6588
  125MOL   H30140229   0.211   1.680   6.428  1.3687  2.2656 -0.4914
  125MOL   H30240230   0.143   1.548   6.632 -3.3751  2.4003  1.3325
  125MOL   H30340231   0.264   1.572   6.838  0.1117  1.4258  1.5703
  125MOL   H30440232   0.294   1.729   7.044  0.7739  1.1665  1.2125
  125MOL   H30540233   0.394   1.844   7.118 -1.2435  0.5771  1.0006
  125MOL   C30640234   0.257   1.939   7.002 -0.6663 -0.7188 -0.4498
  125MOL   C30740235   0.141   1.925   7.098  0.4787 -0.5842  0.6201
  125MOL   C30840236   0.148   1.949   7.236  0.7921 -0.1396  0.0154
  125MOL   C30940237   0.034   1.937   7.314  0.4376 -0.1830 -0.9259
  125MOL  Cl31040238   0.046   1.977   7.483 -0.4805 -0.0261 -0.2263
  125MOL   C31140239   8.349   1.899   7.260 -0.1657 -1.1753 -0.4700
  125MOL   C31240240   8.338   1.877   7.121  0.5759  0.0930 -0.8598
  125MOL   C31340241   0.013   1.897   7.036 -0.2359  0.2351  0.1781
  125MOL   C31440242   0.330   2.078   7.024 -0.2025 -0.1745 -0.1983
  125MOL   H31540243   0.215   1.941   6.902  2.3612 -0.8807 -1.7631
  125MOL   H31640244   0.234   1.981   7.292  1.4380 -0.9485 -0.4801
  125MOL   H31740245   8.266   1.903   7.328 -0.9303 -0.9881 -1.3981
  125MOL   H31840246   8.239   1.848   7.089 -1.2359 -0.5045  4.7584
  125MOL   H31940247   0.005   1.866   6.932 -0.1537  0.0945  0.2133
  125MOL   H32040248   0.408   2.099   6.950  1.9558  0.2848  2.1410
  125MOL   H32140249   0.271   2.169   7.016  1.4183  0.9312  0.1483
  125MOL   H32240250   0.379   2.086   7.121 -0.2086  0.5361 -0.2509
  126MOL     C140251   4.222   0.683   2.413  0.3537 -0.3401  0.4706
  126MOL     C240252   4.160   0.674   2.553 -0.5256 -1.1720  0.5066
  126MOL     C340253   4.058   0.585   2.588  0.1263  0.4552 -0.1742
  126MOL     C440254   4.017   0.574   2.726 -0.2050  0.5188  0.2259
  126MOL    Cl540255   3.881   0.476   2.768 -0.1715  0.3761 -0.5003
  126MOL     C640256   4.071   0.660   2.821 -0.2037  1.1167  0.5325
  126MOL     C740257   4.156   0.765   2.781 -0.1252 -0.3092 -0.9147
  126MOL     C840258   4.212   0.760   2.652  0.3448  0.4302 -0.3023
  126MOL     C940259   4.288   0.551   2.367  0.0885 -0.4283  0.1212
  126MOL    H1040260   4.297   0.762   2.413  0.1003 -0.0886 -0.2167
  126MOL    H1140261   4.014   0.524   2.511  0.6210  0.0269 -0.1219
  126MOL    H1240262   4.042   0.654   2.924  1.1919  0.5406  0.8992
  126MOL    H1340263   4.192   0.837   2.852 -1.7978 -0.5119  0.1508
  126MOL    H1440264   4.288   0.833   2.625  2.3452 -2.0946 -1.6836
  126MOL    H1540265   4.218   0.468   2.356  1.2941 -1.4917  0.4744
  126MOL    H1640266   4.317   0.567   2.263  0.0392 -3.1121 -0.3244
  126MOL    H1740267   4.139   0.704   2.345 -0.0484  0.1842  1.1230
  126MOL    C1840268   4.404   0.490   2.454  0.0934  0.3059 -0.4383
  126MOL    C1940269   4.368   0.430   2.595 -0.8749  0.2320  0.3688
  126MOL    C2040270   4.283   0.319   2.595 -0.2336 -0.1390 -0.5256
  126MOL    C2140271   4.240   0.264   2.720  0.5805 -0.2273 -0.5667
  126MOL   Cl2240272   4.145   0.125   2.728  0.0810 -0.0442  0.0031
  126MOL    C2340273   4.276   0.325   2.838  0.4730 -0.3964 -0.4705
  126MOL    C2440274   4.371   0.433   2.837 -0.4156 -0.1563  0.0052
  126MOL    C2540275   4.424   0.483   2.716 -0.0780  0.0755 -0.4201
  126MOL    C2640276   4.502   0.388   2.382  0.4256  0.3180 -0.0009
  126MOL    H2740277   4.463   0.576   2.486  0.1336  0.4095 -0.7954
  126MOL    H2840278   4.238   0.283   2.504  1.7257 -2.4353 -0.6233
  126MOL    H2940279   4.252   0.280   2.933 -0.1184  0.7650 -0.0526
  126MOL    H3040280   4.406   0.496   2.918  0.2913 -0.6191  0.0619
  126MOL    H3140281   4.487   0.570   2.710  1.2256 -0.9747 -2.7518
  126MOL    H3240282   4.554   0.328   2.456  0.5688  0.5235  0.0639
  126MOL    H3340283   4.435   0.309   2.345  0.3735 -0.6098  2.0385
  126MOL    C3440284   4.595   0.440   2.269  0.2795  0.0208 -0.3116
  126MOL    C3540285   4.664   0.564   2.326 -0.1875  0.3989  0.1003
  126MOL    C3640286   4.635   0.694   2.282 -0.2219  0.1571  0.3756
  126MOL    C3740287   4.689   0.812   2.345  0.4634 -0.0145  0.7766
  126MOL   Cl3840288   4.651   0.967   2.283  0.2329  0.2966 -0.1717
  126MOL    C3940289   4.783   0.796   2.446 -0.6556  0.2185 -0.5264
  126MOL    C4040290   4.823   0.664   2.492  0.6650 -0.1094  0.3172
  126MOL    C4140291   4.753   0.554   2.436 -0.7117 -1.0685  0.2673
  126MOL    C4240292   4.711   0.337   2.231 -0.3053  0.1802 -0.0040
  126MOL    H4340293   4.557   0.459   2.168 -1.8850  0.7871  0.6318
  126MOL    H4440294   4.583   0.702   2.188 -1.9197  0.2729  1.3076
  126MOL    H4540295   4.829   0.880   2.495  1.3711 -1.6257  0.8456
  126MOL    H4640296   4.896   0.650   2.570 -0.9745 -1.0179  1.7404
  126MOL    H4740297   4.779   0.456   2.473  1.1454  0.5797  3.5347
  126MOL    H4840298   4.773   0.384   2.155  3.0215 -2.8167  0.7181
  126MOL    H4940299   4.773   0.321   2.319 -0.8707 -1.7216  0.0730
  126MOL    C5040300   4.657   0.209   2.169  0.6290 -0.2589 -0.1648
  126MOL    C5140301   4.609   0.230   2.027  1.0743 -0.2244 -0.9754
  126MOL    C5240302   4.470   0.197   1.997  0.0841  0.5087  0.4894
  126MOL    C5340303   4.421   0.209   1.865 -0.5849 -0.1717  0.3733
  126MOL   Cl5440304   4.260   0.155   1.837 -0.0351  0.1337 -0.4671
  126MOL    C5540305   4.497   0.275   1.766  0.0518  0.0281  0.1060
  126MOL    C5640306   4.640   0.301   1.792 -0.3410 -0.0425  0.4307
  126MOL    C5740307   4.692   0.271   1.920  0.1365 -0.3769  0.6404
  126MOL    C5840308   4.770   0.104   2.173 -0.1108  0.3882  0.1675
  126MOL    H5940309   4.574   0.178   2.233  1.0645  0.1893  0.6312
  126MOL    H6040310   4.404   0.143   2.064 -0.9422 -0.0333 -0.9143
  126MOL    H6140311   4.455   0.286   1.667  2.1289  1.2999 -0.6799
  126MOL    H6240312   4.711   0.331   1.716 -3.7674  0.8475 -2.5522
  126MOL    H6340313   4.798   0.286   1.932 -0.0347  0.7306  0.7638
  126MOL    H6440314   4.723   0.016   2.128  0.9545  2.4000 -5.1391
  126MOL    H6540315   4.856   0.127   2.110  0.7015 -1.9285  0.3781
  126MOL    C6640316   4.818   0.058   2.312 -0.8071  0.2497  0.3490
  126MOL    C6740317   4.698   0.040   2.407 -0.2508  0.0175 -0.4307
  126MOL    C6840318   4.587   8.389   2.374  0.2252  0.5525 -0.3935
  126MOL    C6940319   4.481   8.387   2.465  0.4020 -1.5946 -0.5497
  126MOL   Cl7040320   4.342   8.296   2.426  0.0764 -0.5210 -0.4975
  126MOL    C7140321   4.487   0.016   2.590 -0.0276 -0.0877 -0.3423
  126MOL    C7240322   4.599   0.092   2.624 -0.1772  0.3506  0.1510
  126MOL    C7340323   4.705   0.102   2.532  0.4248  0.0852 -0.9857
  126MOL    C7440324   4.905   8.360   2.314 -0.0293  0.3478 -0.4451
  126MOL    H7540325   4.884   0.137   2.351  0.4283 -1.0831  0.9938
  126MOL    H7640326   4.582   8.346   2.276  0.2378 -1.3594  0.4289
  126MOL    H7740327   4.407   0.004   2.661 -0.1937 -1.1710 -0.7119
  126MOL    H7840328   4.596   0.151   2.715  0.5053 -0.1818  0.5199
  126MOL    H7940329   4.789   0.162   2.564  1.1735 -1.9880  1.0793
  126MOL    H8040330   4.917   8.333   2.419  1.8702  0.5440 -0.5930
  126MOL    H8140331   4.853   8.276   2.266  2.8014 -0.2035 -2.6975
  126MOL    C8240332   5.057   8.361   2.270  0.0723  0.1063 -0.5187
  126MOL    C8340333   5.073   8.364   2.117  0.4223  0.4346 -0.0534
  126MOL    C8440334   5.092   0.044   2.034  0.7027  0.2158  0.1766
  126MOL    C8540335   5.087   0.034   1.893  0.3746  0.0112 -0.2176
  126MOL   Cl8640336   5.087   0.174   1.793 -0.0657 -0.1025  0.0729
  126MOL    C8740337   5.083   8.344   1.836 -0.0616 -0.2215 -0.5384
  126MOL    C8840338   5.070   8.225   1.917  0.2909 -0.6294  0.7847
  126MOL    C8940339   5.059   8.238   2.054  0.1419  0.0345  0.1214
  126MOL    C9040340   5.150   0.028   2.352  0.2372  0.0238  0.3713
  126MOL    H9140341   5.085   8.260   2.296  2.0887  0.2280 -2.0955
  126MOL    H9240342   5.093   0.141   2.082 -1.6834  1.5461 -2.3491
  126MOL    H9340343   5.089   8.344   1.728 -1.4637 -0.0414 -0.6186
  126MOL    H9440344   5.069   8.126   1.875 -1.5931  0.1539 -1.1368
  126MOL    H9540345   5.045   8.145   2.107 -0.7665 -0.1904 -0.4931
  126MOL    H9640346   5.252   8.434   2.325 -0.3364 -1.2225 -0.4928
  126MOL    H9740347   5.130   0.130   2.318 -0.8057 -0.3644 -0.1951
  126MOL    C9840348   5.138   0.021   2.510 -0.1443 -0.5814 -0.6585
  126MOL    C9940349   5.140   8.310   2.559  0.3518 -0.1013  0.3393
  126MOL   C10040350   5.242   8.215   2.535  0.1193  0.2107  0.6614
  126MOL   C10140351   5.236   8.078   2.573 -0.2079  0.2231 -0.1107
  126MOL  Cl10240352   5.366   7.968   2.548 -0.3042 -0.1289 -0.1602
  126MOL   C10340353   5.119   8.039   2.640  0.0053  0.6121  0.0397
  126MOL   C10440354   5.017   8.133   2.675 -0.2401  0.6111  0.0188
  126MOL   C10540355   5.033   8.270   2.640  0.1551 -0.1671  0.3522
  126MOL   C10640356   5.243   0.111   2.584  0.2492 -0.2974 -0.8960
  126MOL   H10740357   5.044   0.069   2.537  0.4057 -0.4940  1.1582
  126MOL   H10840358   5.322   8.243   2.468  0.2128  1.6784  1.3805
  126MOL   H10940359   5.099   7.937   2.669 -1.2244  1.0133  0.6616
  126MOL   H11040360   4.933   8.096   2.732  0.2444  2.8399  2.2614
  126MOL   H11140361   4.952   8.339   2.662 -1.8461 -2.3185 -0.0392
  126MOL   H11240362   5.268   0.069   2.681 -0.5943 -0.5696 -0.7936
  126MOL   H11340363   5.343   0.110   2.540  1.5585 -0.2311  1.9736
  126MOL   C11440364   5.207   0.260   2.614  0.6988  1.0359 -0.4054
  126MOL   C11540365   5.095   0.264   2.716  0.0034 -0.2475  0.3639
  126MOL   C11640366   4.977   0.340   2.678  0.2131 -0.0701  0.1771
  126MOL   C11740367   4.872   0.348   2.774  0.1429 -0.8677 -0.1086
  126MOL  Cl11840368   4.733   0.449   2.744 -0.4055 -0.3883 -0.5508
  126MOL   C11940369   4.875   0.275   2.887  0.3523 -0.2280  0.2522
  126MOL   C12040370   4.990   0.206   2.916 -0.5125 -0.0149 -0.6353
  126MOL   C12140371   5.107   0.195   2.838 -0.5162 -0.3278 -0.3426
  126MOL   C12240372   5.327   0.350   2.656  0.5254  0.1783 -0.5578
  126MOL   H12340373   5.152   0.296   2.527  0.5469  1.1006 -0.2836
  126MOL   H12440374   4.966   0.391   2.584  0.8606 -1.1260 -0.4890
  126MOL   H12540375   4.796   0.287   2.960 -0.7368  0.8422 -1.0757
  126MOL   H12640376   4.995   0.158   3.013 -0.5426 -1.2299 -1.2180
  126MOL   H12740377   5.194   0.152   2.886 -0.5523  1.2839  1.2193
  126MOL   H12840378   5.278   0.439   2.695 -1.0538 -1.0421  0.3372
  126MOL   H12940379   5.381   0.312   2.743 -0.5054 -0.7933 -0.3197
  126MOL   C13040380   5.421   0.394   2.541  0.3022  0.9500 -0.0209
  126MOL   C13140381   5.344   0.411   2.412  0.0401  0.9071  0.5819
  126MOL   C13240382   5.245   0.505   2.395  0.1450  0.9617  0.7267
  126MOL   C13340383   5.167   0.493   2.274  0.3488  0.3850  0.0492
  126MOL  Cl13440384   5.053   0.616   2.241 -0.1015  0.3375 -0.1648
  126MOL   C13540385   5.198   0.399   2.170 -0.2099  0.3217  0.1028
  126MOL   C13640386   5.311   0.314   2.186  0.7412  0.4459  0.1031
  126MOL   C13740387   5.372   0.320   2.310 -1.2010 -0.0234  0.3289
  126MOL   C13840388   5.497   0.522   2.582  0.5059  0.7500  0.4864
  126MOL   H13940389   5.495   0.315   2.527 -1.0246 -0.2489 -0.4269
  126MOL   H14040390   5.207   0.567   2.474 -4.1638 -0.1757 -0.2916
  126MOL   H14140391   5.151   0.406   2.073  2.1057  0.6900 -1.0281
  126MOL   H14240392   5.335   0.247   2.105  0.2137 -0.6039  0.7990
  126MOL   H14340393   5.445   0.245   2.337  0.4849  1.9250  1.3128
  126MOL   H14440394   5.426   0.592   2.627 -1.1785 -1.7461  1.8469
  126MOL   H14540395   5.564   0.503   2.665  1.7129  0.9232 -0.4433
  126MOL   C14640396   5.585   0.583   2.459  0.3551 -0.6093 -0.0911
  126MOL   C14740397   5.639   0.714   2.507 -0.1178 -0.2226 -0.4089
  126MOL   C14840398   5.601   0.834   2.441  0.6198 -0.5407  0.0762
  126MOL   C14940399   5.650   0.961   2.478  0.2850  0.2032  0.3975
  126MOL  Cl15040400   5.610   1.106   2.393 -0.0147  0.2098 -0.0026
  126MOL   C15140401   5.739   0.964   2.584  0.1003  0.6780  0.0518
  126MOL   C15240402   5.781   0.849   2.655  0.2040  0.1326 -0.0801
  126MOL   C15340403   5.731   0.722   2.610 -0.8140  0.7419  0.1830
  126MOL   C15440404   5.702   0.502   2.403  0.3925 -0.2039  0.2825
  126MOL   H15540405   5.518   0.604   2.376  0.9437  0.5910 -0.2591
  126MOL   H15640406   5.543   0.831   2.351  0.6369  1.5777 -0.0150
  126MOL   H15740407   5.777   1.062   2.612  3.2899 -0.9674  1.7010
  126MOL   H15840408   5.837   0.860   2.747 -1.4512  0.1481  0.9491
  126MOL   H15940409   5.757   0.630   2.660 -1.7378  0.4949  0.2092
  126MOL   H16040410   5.799   0.545   2.428  1.0790 -1.1363 -0.7399
  126MOL   H16140411   5.694   0.402   2.445 -3.1162  1.1100  2.9586
  126MOL   C16240412   5.707   0.465   2.253  0.7370 -0.3416  0.2969
  126MOL   C16340413   5.662   0.577   2.161 -0.7818 -0.0444 -0.5239
  126MOL   C16440414   5.735   0.699   2.161 -0.0948  0.1543  0.1695
  126MOL   C16540415   5.681   0.804   2.084  0.9163 -0.3348 -0.0779
  126MOL  Cl16640416   5.739   0.964   2.087  0.2204  0.1438 -0.0652
  126MOL   C16740417   5.563   0.782   2.003 -0.1336 -0.8129 -0.1347
  126MOL   C16840418   5.491   0.658   2.014 -0.4833 -0.5721  0.6676
  126MOL   C16940419   5.544   0.557   2.087 -0.8095 -0.2413  0.1608
  126MOL   C17040420   5.839   0.406   2.199 -0.4487 -0.0945  0.2463
  126MOL   H17140421   5.630   0.389   2.236 -0.3625  1.2250 -2.1723
  126MOL   H17240422   5.828   0.713   2.214  0.3691 -0.0983 -0.5649
  126MOL   H17340423   5.528   0.868   1.948  1.0635 -0.6961 -0.7238
  126MOL   H17440424   5.396   0.640   1.966 -1.2329  1.3414  1.3551
  126MOL   H17540425   5.491   0.464   2.100 -0.9338 -0.2171 -0.1666
  126MOL   H17640426   5.832   0.387   2.092  1.6334  0.7611 -0.0715
  126MOL   H17740427   5.914   0.485   2.211 -2.9443  2.2601  0.7504
  126MOL   C17840428   5.882   0.280   2.274  0.4133 -0.1828 -0.4543
  126MOL   C17940429   5.797   0.155   2.238  0.1603  0.0362  0.0893
  126MOL   C18040430   5.727   0.084   2.348  0.2043  0.1798 -0.2405
  126MOL   C18140431   5.646   8.413   2.322 -0.4892 -0.1084  0.5076
  126MOL  Cl18240432   5.564   8.339   2.455  0.3942  0.2799 -0.1127
  126MOL   C18340433   5.648   8.363   2.190  0.9958 -0.0965  0.3330
  126MOL   C18440434   5.707   8.434   2.083  0.6525  0.1256 -0.0710
  126MOL   C18540435   5.783   0.112   2.107  0.8848 -0.2420 -0.5340
  126MOL   C18640436   6.026   0.246   2.246  0.6140 -0.3059 -0.0288
  126MOL   H18740437   5.872   0.290   2.382  1.7236  2.5426 -0.5473
  126MOL   H18840438   5.732   0.121   2.449 -1.6982 -1.2848  0.4161
  126MOL   H18940439   5.585   8.276   2.174 -0.3019  0.7049  0.9927
  126MOL   H19040440   5.694   8.397   1.982 -2.1076 -1.2465  0.7400
  126MOL   H19140441   5.827   0.165   2.024  1.3734 -0.7635 -0.6043
  126MOL   H19240442   6.042   0.159   2.309  0.3878  0.5109  1.1728
  126MOL   H19340443   6.051   0.215   2.144  1.1818  1.2639 -0.3738
  126MOL   C19440444   6.136   0.350   2.297 -0.3959  0.0714 -0.1977
  126MOL   C19540445   6.094   0.420   2.426  0.6822 -0.7424 -0.4493
  126MOL   C19640446   6.073   0.349   2.545 -0.3032  0.8586  0.9989
  126MOL   C19740447   6.031   0.418   2.668 -0.7552  0.0776  0.0996
  126MOL  Cl19840448   6.013   0.330   2.813 -0.1347  0.0816 -0.2988
  126MOL   C19940449   6.008   0.561   2.667  0.6569 -0.0785 -0.0559
  126MOL   C20040450   6.035   0.627   2.544 -0.0665 -0.3097  0.2791
  126MOL   C20140451   6.069   0.562   2.422  0.3331 -0.7314 -0.1554
  126MOL   C20240452   6.275   0.281   2.316 -0.3416 -0.3935  0.5648
  126MOL   H20340453   6.139   0.431   2.225 -2.6575  1.4919  1.2288
  126MOL   H20440454   6.096   0.244   2.541 -0.9556  0.7475 -0.0573
  126MOL   H20540455   5.977   0.615   2.755 -1.0581  0.4605 -0.9790
  126MOL   H20640456   6.016   0.733   2.537 -0.2278 -0.3514  0.0910
  126MOL   H20740457   6.105   0.624   2.341 -1.6421 -0.4765 -0.8458
  126MOL   H20840458   6.266   0.205   2.393 -1.6544  0.0785  0.8914
  126MOL   H20940459   6.320   0.238   2.226  0.6779 -0.8539  1.2868
  126MOL   C21040460   6.389   0.375   2.380  0.0587 -0.1968  0.4791
  126MOL   C21140461   6.467   0.307   2.492  0.4678 -0.3161 -0.0360
  126MOL   C21240462   6.444   0.341   2.623  0.0557  0.0369  0.1274
  126MOL   C21340463   6.522   0.296   2.728 -0.8157  0.2009 -0.2038
  126MOL  Cl21440464   6.513   0.369   2.885  0.2608  0.1225  0.6471
  126MOL   C21540465   6.621   0.195   2.708  0.2318  0.0737  0.3755
  126MOL   C21640466   6.648   0.157   2.576 -0.0226  1.2251 -0.4022
  126MOL   C21740467   6.570   0.212   2.469  0.7726 -0.4298 -0.7084
  126MOL   C21840468   6.484   0.425   2.266 -0.1613 -0.4218 -0.1852
  126MOL   H21940469   6.349   0.466   2.425 -1.5047 -0.5552 -0.1600
  126MOL   H22040470   6.363   0.409   2.647 -0.7896 -1.2545  0.9421
  126MOL   H22140471   6.677   0.154   2.790  0.7783  0.3935  0.1645
  126MOL   H22240472   6.725   0.083   2.558 -0.1746  0.8793  0.3236
  126MOL   H22340473   6.588   0.181   2.368  0.3026 -0.2650 -0.8431
  126MOL   H22440474   6.515   0.338   2.209  1.2212  0.6881 -1.1635
  126MOL   H22540475   6.416   0.473   2.195 -0.4148  0.0862  0.3970
  126MOL   C22640476   6.591   0.522   2.311 -0.3895  0.0246 -0.4579
  126MOL   C22740477   6.714   0.513   2.218  1.0690 -0.8221  0.1305
  126MOL   C22840478   6.708   0.579   2.094 -0.2942  0.1538  0.6440
  126MOL   C22940479   6.824   0.571   2.007 -0.4030  0.2798 -0.0484
  126MOL  Cl23040480   6.811   0.648   1.856  0.0984  0.3378 -0.3328
  126MOL   C23140481   6.940   0.503   2.049  0.1566 -0.0351 -0.0063
  126MOL   C23240482   6.948   0.455   2.186  0.6603 -0.4458  0.4845
  126MOL   C23340483   6.833   0.457   2.268 -0.5147  0.6100 -0.1148
  126MOL   C23440484   6.546   0.673   2.335  0.0012 -0.0517 -0.5904
  126MOL   H23540485   6.624   0.483   2.407  2.0298 -1.6611 -1.9356
  126MOL   H23640486   6.611   0.623   2.077 -1.0082 -0.3747  3.1242
  126MOL   H23740487   7.024   0.501   1.982 -0.5776 -0.7435 -0.9091
  126MOL   H23840488   7.048   0.419   2.209  0.4904 -1.0999  0.2035
  126MOL   H23940489   6.837   0.417   2.369 -1.2991  1.9674  0.4752
  126MOL   H24040490   6.585   0.743   2.262  0.4780 -1.4818 -1.7175
  126MOL   H24140491   6.438   0.688   2.334 -0.0012  1.0055  3.7714
  126MOL   C24240492   6.585   0.727   2.473  0.8006 -0.3864  0.1123
  126MOL   C24340493   6.728   0.701   2.503 -0.2363  0.1906  0.9677
  126MOL   C24440494   6.757   0.630   2.626 -0.3216  0.9474 -0.0408
  126MOL   C24540495   6.884   0.578   2.647  0.6619 -0.0890 -0.4579
  126MOL  Cl24640496   6.897   0.474   2.778  0.3647 -0.3899 -0.0933
  126MOL   C24740497   6.988   0.607   2.561 -0.3177  0.2840 -0.1939
  126MOL   C24840498   6.969   0.691   2.448 -1.0728  0.5582 -0.4746
  126MOL   C24940499   6.841   0.732   2.413  0.6126  0.2801  0.0577
  126MOL   C25040500   6.553   0.870   2.505 -0.5553 -0.0856  0.5589
  126MOL   H25140501   6.534   0.670   2.551  0.7072  0.0390  0.3632
  126MOL   H25240502   6.673   0.598   2.686 -0.4509  3.4331  1.1687
  126MOL   H25340503   7.086   0.563   2.569  0.3028  1.6544 -0.0651
  126MOL   H25440504   7.049   0.719   2.381 -0.7310  0.6894 -0.0104
  126MOL   H25540505   6.828   0.784   2.319  2.8269  3.1201  1.2561
  126MOL   H25640506   6.635   0.919   2.558 -1.2348 -0.4493  1.9855
  126MOL   H25740507   6.570   0.937   2.421  0.0026  0.5130  1.1417
  126MOL   C25840508   6.408   0.899   2.562 -0.2188  0.0120 -0.1959
  126MOL   C25940509   6.409   0.821   2.697 -0.0099  0.7197  1.5137
  126MOL   C26040510   6.517   0.828   2.786 -0.6049 -0.0912 -0.2005
  126MOL   C26140511   6.513   0.776   2.915 -0.0989  0.4050  0.3602
  126MOL  Cl26240512   6.648   0.783   3.025  0.0924 -0.0982  0.1385
  126MOL   C26340513   6.387   0.712   2.951 -0.4635 -0.1900 -0.5272
  126MOL   C26440514   6.281   0.703   2.865 -0.2031 -0.0458  0.0613
  126MOL   C26540515   6.295   0.759   2.737 -0.1227 -0.6236 -0.1512
  126MOL   C26640516   6.381   1.040   2.584 -0.1015 -0.0053 -0.3890
  126MOL   H26740517   6.343   0.839   2.499  0.2376 -0.7643  0.0671
  126MOL   H26840518   6.609   0.882   2.767  0.4966 -1.6948  0.4457
  126MOL   H26940519   6.384   0.677   3.054 -0.5228  0.7537 -0.2083
  126MOL   H27040520   6.187   0.666   2.902 -1.3718  1.3633 -1.4357
  126MOL   H27140521   6.206   0.756   2.676  0.0100 -0.8069 -0.3325
  126MOL   H27240522   6.286   1.043   2.637  0.6701 -2.6794  1.2469
  126MOL   H27340523   6.443   1.086   2.661 -0.3311  0.4283 -0.4619
  126MOL   C27440524   6.363   1.130   2.460 -0.2167  0.2148  0.6678
  126MOL   C27540525   6.272   1.065   2.348  0.2560  0.1249  0.4281
  126MOL   C27640526   6.324   1.056   2.222  0.6993 -0.2721  0.3082
  126MOL   C27740527   6.243   1.021   2.111 -0.5781 -0.5166 -0.7551
  126MOL  Cl27840528   6.309   1.047   1.955  0.2217  0.0065  0.0748
  126MOL   C27940529   6.112   0.982   2.125  0.0404 -1.2410  0.6282
  126MOL   C28040530   6.058   0.979   2.256  0.2343 -0.2295 -0.3147
  126MOL   C28140531   6.138   1.016   2.368 -0.3089  0.2818 -0.1713
  126MOL   C28240532   6.318   1.271   2.494  0.7991  0.2161 -0.3943
  126MOL   H28340533   6.464   1.129   2.418  0.4727 -1.5675  2.3144
  126MOL   H28440534   6.427   1.086   2.206  0.3875  1.8079  1.9706
  126MOL   H28540535   6.056   0.941   2.041  0.5056 -1.3986  0.3937
  126MOL   H28640536   5.955   0.954   2.276  0.7022 -1.9706  0.0114
  126MOL   H28740537   6.092   1.021   2.465  1.2387  1.2349  0.5467
  126MOL   H28840538   6.276   1.323   2.407 -0.8054  0.4661  0.5129
  126MOL   H28940539   6.228   1.268   2.556  2.1569  0.7421  1.6327
  126MOL   C29040540   6.432   1.353   2.558  0.4679  0.5520 -1.0416
  126MOL   C29140541   6.548   1.382   2.458  0.0420  0.0887 -1.0882
  126MOL   C29240542   6.685   1.350   2.497 -0.0051  0.1954  0.4695
  126MOL   C29340543   6.780   1.363   2.402 -1.1776 -0.5268  0.0356
  126MOL  Cl29440544   6.949   1.322   2.437  0.2010  0.0813  0.0298
  126MOL   C29540545   6.756   1.420   2.273  0.0585 -0.8806 -0.2459
  126MOL   C29640546   6.627   1.464   2.237  0.3521  0.0559 -0.7438
  126MOL   C29740547   6.520   1.442   2.330 -0.2966 -0.0133  0.5243
  126MOL   C29840548   6.375   1.479   2.628  0.4054  0.4097  0.2771
  126MOL   H29940549   6.476   1.302   2.643 -2.6056 -0.2143  0.1569
  126MOL   H30040550   6.706   1.311   2.596 -2.4794 -2.3248  0.0778
  126MOL   H30140551   6.837   1.430   2.203  0.9280  0.5150  0.9330
  126MOL   H30240552   6.617   1.496   2.135 -0.8735 -0.6662 -0.8588
  126MOL   H30340553   6.421   1.460   2.291  0.5742  2.1331 -0.7542
  126MOL   H30440554   6.465   1.518   2.676  1.5376 -1.9189  0.0929
  126MOL   H30540555   6.335   1.552   2.557 -1.1171 -1.6426 -1.0112
  126MOL   C30640556   6.280   1.473   2.750 -0.4328  0.5270 -0.1338
  126MOL   C30740557   6.320   1.357   2.843 -0.3450 -0.3338 -0.2273
  126MOL   C30840558   6.233   1.244   2.851  0.3139 -0.9094 -0.0346
  126MOL   C30940559   6.275   1.132   2.923  0.7583 -0.0600  0.2820
  126MOL  Cl31040560   6.167   0.998   2.926 -0.0213  0.2984  0.0965
  126MOL   C31140561   6.398   1.134   2.998  0.2285 -0.4426  0.2687
  126MOL   C31240562   6.485   1.244   2.982 -0.1616 -0.5735 -0.3836
  126MOL   C31340563   6.447   1.359   2.908 -0.2245  0.8294  0.0485
  126MOL   C31440564   6.261   1.601   2.825  0.2173  0.4486 -0.0618
  126MOL   H31540565   6.183   1.435   2.717  1.4023 -2.0360 -2.7909
  126MOL   H31640566   6.143   1.239   2.791  0.9763 -1.5089 -1.0002
  126MOL   H31740567   6.425   1.053   3.064  2.1366  0.1605  0.2528
  126MOL   H31840568   6.579   1.253   3.035 -0.8183  1.3672  0.4945
  126MOL   H31940569   6.511   1.446   2.902 -1.0305  1.6108  2.3221
  126MOL   H32040570   6.200   1.600   2.915 -1.7365  1.0752 -1.3374
  126MOL   H32140571   6.358   1.644   2.847 -0.1760  0.9038  0.7786
  126MOL   H32240572   6.212   1.680   2.768  1.5586  0.0799 -1.7762
  127MOL     C140573   6.900   4.110   1.508 -0.9460 -0.4978 -0.9323
  127MOL     C240574   6.915   4.084   1.662  0.0369  0.2901  0.0103
  127MOL     C340575   6.922   3.948   1.704 -0.1746  0.0694  0.1283
  127MOL     C440576   6.945   3.917   1.839  0.3237 -0.4596  1.0772
  127MOL    Cl540577   6.963   3.753   1.880 -0.3010  0.1089  0.3981
  127MOL     C640578   6.963   4.019   1.931  0.2763  0.2169 -0.6802
  127MOL     C740579   6.969   4.157   1.889 -0.6202  0.4411  0.1860
  127MOL     C840580   6.948   4.185   1.751  0.3057 -0.1224  0.5976
  127MOL     C940581   6.756   4.096   1.469  0.3825  0.5776  1.0602
  127MOL    H1040582   6.951   4.026   1.462 -1.5527 -1.6240  0.4409
  127MOL    H1140583   6.909   3.866   1.635 -0.4682 -0.1296  0.4169
  127MOL    H1240584   6.976   4.008   2.038  0.7636  3.4842 -0.3396
  127MOL    H1340585   6.996   4.240   1.952 -0.3379  1.7078 -1.5895
  127MOL    H1440586   6.938   4.290   1.727 -0.0676 -0.2410  0.2455
  127MOL    H1540587   6.723   3.992   1.470 -2.7664  1.5082  0.0776
  127MOL    H1640588   6.689   4.155   1.532 -1.2037  1.2267 -1.1945
  127MOL    H1740589   6.949   4.207   1.493 -0.5449 -0.8362 -1.8126
  127MOL    C1840590   6.738   4.132   1.323 -0.5195 -0.6429  0.5655
  127MOL    C1940591   6.814   4.039   1.235 -0.5490 -0.3492  0.4040
  127MOL    C2040592   6.915   4.082   1.146  0.2263 -0.7283 -0.2920
  127MOL    C2140593   6.989   3.994   1.076  0.1139 -0.3623  0.9399
  127MOL   Cl2240594   7.118   4.055   0.981  0.1364  0.0856 -0.0141
  127MOL    C2340595   6.951   3.866   1.058 -0.5175  0.3891  0.2844
  127MOL    C2440596   6.854   3.813   1.146  0.2544  0.5004 -0.5274
  127MOL    C2540597   6.786   3.900   1.233 -0.5664  0.1753 -0.0544
  127MOL    C2640598   6.585   4.140   1.297  0.1621  0.1397 -0.1205
  127MOL    H2740599   6.778   4.230   1.298 -0.3327 -0.8390  0.0954
  127MOL    H2840600   6.947   4.184   1.154 -0.9688 -0.2680 -1.1195
  127MOL    H2940601   7.002   3.805   0.985 -1.5438  0.9687 -0.9434
  127MOL    H3040602   6.828   3.708   1.145 -1.7762  0.9099  2.8124
  127MOL    H3140603   6.707   3.871   1.300 -3.2741  5.2000 -0.8067
  127MOL    H3240604   6.538   4.042   1.305 -1.3037  0.8469  0.3331
  127MOL    H3340605   6.537   4.197   1.377  1.4708  3.9668 -1.9105
  127MOL    C3440606   6.537   4.225   1.175 -0.1591 -0.3950 -0.1327
  127MOL    C3540607   6.610   4.191   1.045  0.1167 -0.4024  0.1752
  127MOL    C3640608   6.600   4.064   0.981 -0.5409 -0.1284  0.2927
  127MOL    C3740609   6.674   4.043   0.863 -0.3810 -0.2746  0.1050
  127MOL   Cl3840610   6.712   3.886   0.816  0.1690 -0.0576 -0.1435
  127MOL    C3940611   6.738   4.144   0.792  0.4399 -0.0336  0.5842
  127MOL    C4040612   6.727   4.277   0.850 -0.1488  0.3241  0.3580
  127MOL    C4140613   6.666   4.300   0.975  0.3401  0.3162  0.6067
  127MOL    C4240614   6.385   4.203   1.153 -0.1872 -0.0270 -0.5386
  127MOL    H4340615   6.544   4.329   1.208 -0.1678 -0.1270 -0.9616
  127MOL    H4440616   6.559   3.982   1.040  0.1575 -0.4004  0.3997
  127MOL    H4540617   6.790   4.132   0.698 -0.6327  0.3583 -0.0663
  127MOL    H4640618   6.766   4.364   0.800  0.0858  0.2827  0.4674
  127MOL    H4740619   6.660   4.397   1.022  0.1671  0.1836  0.8598
  127MOL    H4840620   6.369   4.276   1.074  1.3353 -0.8621 -1.6391
  127MOL    H4940621   6.371   4.102   1.113  0.0899  0.0453 -0.8240
  127MOL    C5040622   6.279   4.223   1.258 -0.4599 -0.1776 -0.3812
  127MOL    C5140623   6.146   4.268   1.197 -0.1202  0.0484 -0.1290
  127MOL    C5240624   6.069   4.190   1.104  0.2676  0.4401  0.4974
  127MOL    C5340625   5.953   4.241   1.039 -0.0570 -0.4892  0.3368
  127MOL   Cl5440626   5.879   4.142   0.917 -0.4102  0.1839  0.3364
  127MOL    C5540627   5.894   4.361   1.083 -0.2133  0.0497 -0.0421
  127MOL    C5640628   5.959   4.429   1.187 -0.6731 -0.3835  0.0668
  127MOL    C5740629   6.085   4.392   1.238 -0.0852 -0.3714  0.0272
  127MOL    C5840630   6.269   4.087   1.340  0.3237  0.4465 -0.3560
  127MOL    H5940631   6.312   4.301   1.328  0.2061 -2.6784  2.1894
  127MOL    H6040632   6.109   4.096   1.070 -0.5299  0.1743  0.3068
  127MOL    H6140633   5.792   4.388   1.063 -0.1440  0.5400  0.2696
  127MOL    H6240634   5.918   4.524   1.220 -0.4827 -0.9869  2.0986
  127MOL    H6340635   6.140   4.456   1.306  0.0569  0.6539 -1.0504
  127MOL    H6440636   6.242   4.005   1.274  1.0482 -0.4729  0.4798
  127MOL    H6540637   6.362   4.066   1.393  0.7041 -0.4956 -1.3762
  127MOL    C6640638   6.153   4.076   1.448  0.3469 -0.1300 -0.1370
  127MOL    C6740639   6.108   3.940   1.470 -0.2459  0.1965  0.0432
  127MOL    C6840640   6.182   3.851   1.556  0.7463  0.0858 -0.3133
  127MOL    C6940641   6.142   3.715   1.557 -0.1295  0.0702 -0.0687
  127MOL   Cl7040642   6.214   3.611   1.674 -0.1456 -0.0169  0.1728
  127MOL    C7140643   6.036   3.665   1.476  0.2903 -0.3231 -0.0071
  127MOL    C7240644   5.964   3.759   1.399  0.0918  0.4494 -0.2230
  127MOL    C7340645   6.003   3.891   1.387  0.5686 -0.5288  0.1534
  127MOL    C7440646   6.191   4.149   1.576 -0.3268 -0.0743 -0.0409
  127MOL    H7540647   6.065   4.128   1.410  1.5946  1.2503 -1.2111
  127MOL    H7640648   6.261   3.876   1.624  2.2149 -2.7321 -0.8909
  127MOL    H7740649   6.004   3.562   1.471  0.1739 -0.2305 -1.5445
  127MOL    H7840650   5.880   3.729   1.338  0.2818 -0.4331 -0.0517
  127MOL    H7940651   5.948   3.952   1.317  0.3845  2.0095  2.4443
  127MOL    H8040652   6.266   4.097   1.635  0.9605  2.1193  0.3066
  127MOL    H8140653   6.237   4.245   1.556 -2.1917  0.9264  0.3060
  127MOL    C8240654   6.073   4.194   1.668  0.4616  0.1792 -0.0501
  127MOL    C8340655   6.115   4.268   1.790  0.2031 -0.6605 -0.1533
  127MOL    C8440656   6.065   4.233   1.920  0.2604  0.0736  0.4973
  127MOL    C8540657   6.099   4.305   2.038  0.0220  0.3716  0.1715
  127MOL   Cl8640658   6.053   4.255   2.192 -0.4826 -0.2147  0.5281
  127MOL    C8740659   6.187   4.415   2.028  0.4495  0.1278 -0.2495
  127MOL    C8840660   6.218   4.462   1.895 -0.5365 -0.5669 -0.5414
  127MOL    C8940661   6.191   4.385   1.784  0.4344  0.0824 -0.5976
  127MOL    C9040662   5.955   4.279   1.602 -0.3074 -0.9060  0.2043
  127MOL    H9140663   6.039   4.103   1.717 -0.3941  0.8155  0.5326
  127MOL    H9240664   6.004   4.145   1.929 -1.7609  1.3203 -0.5219
  127MOL    H9340665   6.221   4.478   2.110 -0.3124 -1.6570  1.4930
  127MOL    H9440666   6.270   4.557   1.891 -0.7462 -0.5041 -2.2307
  127MOL    H9540667   6.216   4.427   1.687  2.9813  2.9265  1.1756
  127MOL    H9640668   5.930   4.368   1.659 -3.2066 -0.2948 -1.9527
  127MOL    H9740669   5.982   4.331   1.511 -0.6622 -0.4290  0.3694
  127MOL    C9840670   5.833   4.191   1.594  0.4030 -0.6472 -0.0015
  127MOL    C9940671   5.744   4.208   1.715  0.3448  0.3813  0.3127
  127MOL   C10040672   5.658   4.323   1.728 -0.5833 -0.6329  0.3846
  127MOL   C10140673   5.557   4.332   1.827 -0.2710  0.2030  0.6071
  127MOL  Cl10240674   5.463   4.472   1.830 -0.1930  0.3430 -0.6149
  127MOL   C10340675   5.546   4.226   1.920 -0.5912 -0.5157  0.1547
  127MOL   C10440676   5.644   4.121   1.919 -0.9194 -0.3548  0.2736
  127MOL   C10540677   5.742   4.114   1.819 -0.1427 -0.2680 -0.0753
  127MOL   C10640678   5.764   4.196   1.456 -0.4508 -0.6992  0.3444
  127MOL   H10740679   5.863   4.086   1.589  0.5300 -0.5216 -2.6416
  127MOL   H10840680   5.665   4.400   1.652  0.6743 -2.4649 -1.4096
  127MOL   H10940681   5.469   4.229   1.995 -0.8804  0.5433 -0.1779
  127MOL   H11040682   5.643   4.058   2.007  0.5524  1.2205  1.4457
  127MOL   H11140683   5.804   4.025   1.818 -0.2947 -0.3720 -0.2699
  127MOL   H11240684   5.757   4.298   1.419  2.8956 -1.3784 -2.4547
  127MOL   H11340685   5.836   4.157   1.383 -1.5707 -1.2816 -0.4691
  127MOL   C11440686   5.625   4.121   1.457  0.1261 -0.0952  0.3329
  127MOL   C11540687   5.525   4.182   1.354 -0.3958  0.3923  0.5920
  127MOL   C11640688   5.395   4.221   1.393 -0.3108 -1.0310 -0.1966
  127MOL   C11740689   5.312   4.291   1.300  0.5888 -0.1554  0.3988
  127MOL  Cl11840690   5.163   4.354   1.356 -0.4288  0.0354  0.3097
  127MOL   C11940691   5.349   4.304   1.164  0.2706  0.0433  0.1754
  127MOL   C12040692   5.479   4.261   1.126  0.4582 -0.6010  0.2581
  127MOL   C12140693   5.565   4.196   1.223 -0.1211 -0.1682 -0.3384
  127MOL   C12240694   5.644   3.967   1.446 -0.0839  1.0283 -1.1874
  127MOL   H12340695   5.567   4.153   1.543 -1.0445 -1.5908  0.1189
  127MOL   H12440696   5.358   4.228   1.495 -1.2397 -1.3152 -0.5061
  127MOL   H12540697   5.285   4.365   1.102 -0.3455  0.8289  1.5600
  127MOL   H12640698   5.511   4.271   1.024 -1.7691  1.1497 -0.3025
  127MOL   H12740699   5.664   4.165   1.194 -0.1040 -2.1649  1.6849
  127MOL   H12840700   5.681   3.944   1.346 -0.9419 -1.0158 -1.0474
  127MOL   H12940701   5.718   3.935   1.519 -3.1676 -0.0100  1.6098
  127MOL   C13040702   5.512   3.892   1.466  0.0438 -0.1702  0.4186
  127MOL   C13140703   5.511   3.751   1.405 -0.7830 -0.2006 -1.0789
  127MOL   C13240704   5.473   3.749   1.270 -0.6443  0.3837  0.2774
  127MOL   C13340705   5.473   3.626   1.203 -0.2671 -0.3978 -0.2242
  127MOL  Cl13440706   5.419   3.621   1.042 -0.0567  0.1331  0.0775
  127MOL   C13540707   5.511   3.505   1.269  0.9330 -0.1946  1.0723
  127MOL   C13640708   5.546   3.512   1.400 -0.3832  0.5998 -0.4011
  127MOL   C13740709   5.548   3.630   1.468 -0.2136 -0.4678  0.0055
  127MOL   C13840710   5.475   3.884   1.613 -0.3503 -0.3492 -0.3584
  127MOL   H13940711   5.431   3.942   1.414  1.1180  0.2350 -0.9184
  127MOL   H14040712   5.429   3.835   1.222 -1.1370  0.7234  1.3338
  127MOL   H14140713   5.515   3.413   1.211  0.3569  2.4056 -3.3776
  127MOL   H14240714   5.577   3.421   1.449 -2.0620  0.4411  0.3811
  127MOL   H14340715   5.578   3.632   1.572  1.4668  2.0378 -0.4878
  127MOL   H14440716   5.544   3.821   1.668 -2.0029 -2.8595 -1.0616
  127MOL   H14540717   5.492   3.986   1.648  1.6066 -0.3532 -1.2692
  127MOL   C14640718   5.323   3.834   1.646 -0.0612 -0.2010  0.4767
  127MOL   C14740719   5.331   3.799   1.797  0.0686 -0.2943 -0.6022
  127MOL   C14840720   5.284   3.666   1.831 -0.5485 -0.8653 -0.7955
  127MOL   C14940721   5.269   3.630   1.966 -0.2435  0.1537 -0.1775
  127MOL  Cl15040722   5.211   3.477   2.016 -0.1564  0.1862  0.3377
  127MOL   C15140723   5.307   3.717   2.070  0.7224  0.7350  0.0409
  127MOL   C15240724   5.337   3.847   2.037 -0.0250 -0.4190 -0.8358
  127MOL   C15340725   5.363   3.890   1.904  0.6006  0.8307 -0.1643
  127MOL   C15440726   5.210   3.934   1.606 -0.0560 -0.3731 -0.1866
  127MOL   H15540727   5.306   3.742   1.589  2.1474 -0.0157 -0.5227
  127MOL   H15640728   5.244   3.601   1.755 -0.1639  0.5224 -2.2133
  127MOL   H15740729   5.299   3.680   2.171  0.7412  0.0162 -0.2114
  127MOL   H15840730   5.354   3.910   2.123 -2.1951  1.1122 -1.4808
  127MOL   H15940731   5.385   3.993   1.882  2.5762  0.3492 -0.5165
  127MOL   H16040732   5.249   4.033   1.633 -0.2391 -0.5928  0.9247
  127MOL   H16140733   5.188   3.940   1.500  0.2819  0.0107 -0.2371
  127MOL   C16240734   5.077   3.920   1.689 -0.6551 -0.1931 -0.2541
  127MOL   C16340735   5.020   4.058   1.745  0.6228  0.0545  0.4067
  127MOL   C16440736   4.990   4.161   1.658 -0.6541  0.0134  0.2075
  127MOL   C16540737   4.938   4.284   1.708  0.2476 -0.2838  0.5706
  127MOL  Cl16640738   4.912   4.410   1.596 -0.0570  0.6864 -0.0225
  127MOL   C16740739   4.932   4.303   1.851 -0.1001  0.3717  1.0084
  127MOL   C16840740   4.957   4.199   1.935  0.2842 -0.4626  0.0143
  127MOL   C16940741   5.005   4.077   1.881 -0.7096  0.0039 -0.1270
  127MOL   C17040742   4.965   3.843   1.617 -0.1207 -0.0376 -0.6825
  127MOL   H17140743   5.086   3.858   1.778  0.7733 -1.4790 -1.2741
  127MOL   H17240744   5.006   4.159   1.551 -0.4683  1.1282  0.1991
  127MOL   H17340745   4.900   4.395   1.897  1.6691  1.0443  0.9554
  127MOL   H17440746   4.929   4.207   2.039 -0.1233 -0.0655 -0.1241
  127MOL   H17540747   5.032   3.994   1.945  2.3529  0.6728 -0.4825
  127MOL   H17640748   4.927   3.914   1.544  1.2420  0.3545 -1.0331
  127MOL   H17740749   5.007   3.761   1.559  0.4124  0.3419 -0.8421
  127MOL   C17840750   4.843   3.805   1.707  0.2138  0.7253 -0.3647
  127MOL   C17940751   4.721   3.794   1.622  0.2178 -0.4126  0.2173
  127MOL   C18040752   4.724   3.706   1.511  0.2217 -0.3261 -0.0968
  127MOL   C18140753   4.614   3.704   1.425 -0.3362  0.2685 -1.0674
  127MOL  Cl18240754   4.622   3.596   1.292 -0.4241  0.0145 -0.5293
  127MOL   C18340755   4.509   3.794   1.440 -0.3428 -0.6477 -0.2724
  127MOL   C18440756   4.496   3.877   1.557  0.0231 -0.4590  0.9649
  127MOL   C18540757   4.605   3.872   1.651 -0.1376  0.5117 -0.1989
  127MOL   C18640758   4.863   3.672   1.788  0.7364  0.0124  0.4010
  127MOL   H18740759   4.820   3.888   1.774  0.1253  0.3205  0.1021
  127MOL   H18840760   4.806   3.639   1.489  0.5292  0.4172 -1.2571
  127MOL   H18940761   4.428   3.800   1.369  0.3427  0.7600 -0.9510
  127MOL   H19040762   4.416   3.944   1.586  0.2158 -0.4147  1.3873
  127MOL   H19140763   4.606   3.942   1.733  1.0465  1.1135 -0.7164
  127MOL   H19240764   4.872   3.586   1.722 -0.1255  1.4048 -1.5877
  127MOL   H19340765   4.968   3.685   1.815  1.2390 -0.7545 -1.1185
  127MOL   C19440766   4.792   3.648   1.924  0.9589 -0.1805  0.0901
  127MOL   C19540767   4.822   3.756   2.027 -1.1629 -0.1457  0.1809
  127MOL   C19640768   4.916   3.736   2.124  0.5542 -0.1994 -0.8553
  127MOL   C19740769   4.957   3.839   2.207 -0.7565  0.3798  0.2735
  127MOL  Cl19840770   5.080   3.810   2.328  0.1565 -0.1130  0.0774
  127MOL   C19940771   4.905   3.967   2.202 -0.1279 -0.0710 -0.4254
  127MOL   C20040772   4.798   3.988   2.110  0.1601 -0.6898 -0.1072
  127MOL   C20140773   4.757   3.882   2.023  1.2347  0.3802 -0.6371
  127MOL   C20240774   4.638   3.615   1.912 -0.3895  0.0837  0.7229
  127MOL   H20340775   4.843   3.560   1.963  0.0749  0.3469  2.5298
  127MOL   H20440776   4.955   3.636   2.134  1.4780  0.0873 -1.5075
  127MOL   H20540777   4.942   4.042   2.270 -0.8714  0.3601 -0.4875
  127MOL   H20640778   4.747   4.083   2.120  1.3169 -0.1170  0.4585
  127MOL   H20740779   4.676   3.908   1.957  1.0757  1.5245  0.0024
  127MOL   H20840780   4.589   3.702   1.868  2.3811  1.0559 -0.5526
  127MOL   H20940781   4.629   3.531   1.843  1.7439  2.1086 -2.1652
  127MOL   C21040782   4.554   3.584   2.041 -0.1522 -0.9202  0.1198
  127MOL   C21140783   4.503   3.713   2.121  0.0678  0.1953  0.6069
  127MOL   C21240784   4.405   3.794   2.060  0.4635 -0.0631  0.2459
  127MOL   C21340785   4.355   3.908   2.122 -0.2326 -0.1791 -0.6284
  127MOL  Cl21440786   4.222   3.998   2.055  0.3166 -0.0284  0.1788
  127MOL   C21540787   4.401   3.936   2.256 -1.1414  0.2255 -0.3166
  127MOL   C21640788   4.495   3.854   2.318 -0.1584  0.1897  0.5485
  127MOL   C21740789   4.548   3.742   2.254 -0.4241 -0.0990  0.4365
  127MOL   C21840790   4.437   3.486   2.022 -0.2912  0.2510  0.0464
  127MOL   H21940791   4.616   3.526   2.110 -0.8772  0.0926  1.6495
  127MOL   H22040792   4.362   3.762   1.966 -0.1016 -0.3382  0.5957
  127MOL   H22140793   4.363   4.020   2.311  1.7686 -0.3201  2.6549
  127MOL   H22240794   4.530   3.881   2.417 -0.5246 -0.4668  0.8645
  127MOL   H22340795   4.623   3.677   2.296 -1.3604 -0.9656  0.7826
  127MOL   H22440796   4.387   3.515   1.930 -0.0744 -0.0365 -0.1617
  127MOL   H22540797   4.473   3.387   1.994 -1.2683 -0.6151  1.7439
  127MOL   C22640798   4.322   3.473   2.129 -0.3071 -0.0264 -0.2015
  127MOL   C22740799   4.199   3.404   2.071  0.3142  0.5514  0.2771
  127MOL   C22840800   4.190   3.262   2.078  0.4052  0.5551 -0.1838
  127MOL   C22940801   4.068   3.198   2.057  0.3352  0.0847 -0.0553
  127MOL  Cl23040802   4.057   3.027   2.063  0.0382 -0.2821 -0.2608
  127MOL   C23140803   3.958   3.273   2.023  0.0586  0.0439  0.5735
  127MOL   C23240804   3.966   3.412   2.015 -0.2846 -0.5147 -0.2180
  127MOL   C23340805   4.087   3.473   2.032 -0.2457 -0.0477  0.0119
  127MOL   C23440806   4.369   3.415   2.273 -0.1281 -0.4551 -0.4825
  127MOL   H23540807   4.290   3.576   2.144 -2.7255 -0.8759  0.7619
  127MOL   H23640808   4.278   3.204   2.100 -0.0951 -1.1046 -2.3223
  127MOL   H23740809   3.865   3.221   2.004 -0.6766  0.5481  2.7072
  127MOL   H23840810   3.875   3.466   1.992 -1.3184 -2.1719 -0.0979
  127MOL   H23940811   4.088   3.581   2.038  1.1819 -0.1183  1.3063
  127MOL   H24040812   4.368   3.306   2.277 -0.8405 -0.4161  0.7342
  127MOL   H24140813   4.474   3.443   2.282 -0.3468  0.6105 -1.2675
  127MOL   C24240814   4.321   3.474   2.405 -0.2289  1.0864 -0.2073
  127MOL   C24340815   4.178   3.525   2.400 -0.7161 -0.1973 -0.0793
  127MOL   C24440816   4.074   3.428   2.391  0.5597 -1.1331  0.0955
  127MOL   C24540817   3.943   3.472   2.384  0.2850  0.5056 -0.0374
  127MOL  Cl24640818   3.822   3.346   2.363  0.2635 -0.0834 -0.0843
  127MOL   C24740819   3.907   3.608   2.401  0.3581  1.0638 -0.8825
  127MOL   C24840820   4.004   3.706   2.420 -0.0530 -0.4664  0.0253
  127MOL   C24940821   4.139   3.664   2.405 -0.1162 -0.0997  0.3208
  127MOL   C25040822   4.358   3.389   2.528 -0.3069  0.3429 -0.1808
  127MOL   H25140823   4.381   3.566   2.411  1.3515  0.0576  0.2191
  127MOL   H25240824   4.098   3.323   2.381 -2.6198 -1.9249  0.3826
  127MOL   H25340825   3.801   3.629   2.409  0.3576  0.8990 -0.4544
  127MOL   H25440826   3.975   3.810   2.419 -0.8204 -0.6674  0.5341
  127MOL   H25540827   4.213   3.743   2.412 -0.8344  0.3714  4.1489
  127MOL   H25640828   4.291   3.303   2.531  0.5874 -0.3231  1.7262
  127MOL   H25740829   4.459   3.351   2.515  0.0976  1.2504  0.2269
  127MOL   C25840830   4.342   3.457   2.661 -0.0601 -0.0248 -0.5951
  127MOL   C25940831   4.197   3.458   2.716  0.2913  0.2097  0.3164
  127MOL   C26040832   4.122   3.342   2.725  0.1383  0.0795 -0.6633
  127MOL   C26140833   3.986   3.350   2.753  0.7825  0.1177  0.0635
  127MOL  Cl26240834   3.882   3.208   2.754 -0.1158  0.1840 -0.0709
  127MOL   C26340835   3.916   3.471   2.770  0.8073 -0.1835 -0.0071
  127MOL   C26440836   3.992   3.590   2.772  0.6218 -0.5362 -0.0298
  127MOL   C26540837   4.130   3.582   2.751  0.3463 -0.2456  0.3662
  127MOL   C26640838   4.433   3.394   2.770  0.3541 -0.4454  0.2752
  127MOL   H26740839   4.372   3.561   2.658 -1.6901  0.4789 -0.1141
  127MOL   H26840840   4.167   3.244   2.720 -0.1631 -0.0641 -0.5897
  127MOL   H26940841   3.812   3.464   2.800  0.1856  0.2131 -2.0232
  127MOL   H27040842   3.943   3.684   2.793  1.9000  0.0875  0.1727
  127MOL   H27140843   4.179   3.678   2.747  0.3682 -0.3504 -2.0768
  127MOL   H27240844   4.386   3.407   2.868  0.3369 -0.5712  0.2845
  127MOL   H27340845   4.426   3.285   2.764  2.0322 -0.5223 -0.7105
  127MOL   C27440846   4.581   3.438   2.768 -0.2822  0.1339 -0.3345
  127MOL   C27540847   4.592   3.593   2.765 -0.5569 -0.1608  0.1468
  127MOL   C27640848   4.682   3.655   2.675 -0.1167  0.3300  0.2907
  127MOL   C27740849   4.683   3.794   2.664 -0.4877 -0.8063  0.2379
  127MOL  Cl27840850   4.793   3.862   2.557 -0.0177  0.2032 -0.1524
  127MOL   C27940851   4.590   3.873   2.728 -0.3055 -0.6506 -0.5545
  127MOL   C28040852   4.498   3.807   2.815  0.0225 -0.3168  0.1314
  127MOL   C28140853   4.504   3.673   2.841 -0.0134  0.2636 -0.3705
  127MOL   C28240854   4.670   3.375   2.878 -0.0602 -0.1117  0.7602
  127MOL   H28340855   4.624   3.401   2.675 -0.4308 -0.1667 -0.2829
  127MOL   H28440856   4.758   3.600   2.621  0.0655  0.9838 -0.1300
  127MOL   H28540857   4.588   3.980   2.712  1.2788 -0.3049  1.4081
  127MOL   H28640858   4.425   3.872   2.862  1.9387  0.9927  1.3675
  127MOL   H28740859   4.438   3.622   2.910  0.5900 -0.9983 -0.7066
  127MOL   H28840860   4.776   3.393   2.857  0.3017 -0.3144  2.3344
  127MOL   H28940861   4.632   3.409   2.975 -2.8604  1.8429 -0.9500
  127MOL   C29040862   4.666   3.225   2.883  0.4244  0.2445 -0.1025
  127MOL   C29140863   4.701   3.160   2.749 -0.1560  0.8794  0.1171
  127MOL   C29240864   4.829   3.184   2.688 -0.4723  0.5396 -0.5349
  127MOL   C29340865   4.870   3.110   2.576 -0.2241 -0.8674 -0.0322
  127MOL  Cl29440866   5.029   3.122   2.520 -0.1854  0.2167 -0.2770
  127MOL   C29540867   4.786   3.003   2.528  0.5585 -0.3058  0.7049
  127MOL   C29640868   4.661   2.978   2.584  0.3796 -0.7729 -0.0877
  127MOL   C29740869   4.621   3.054   2.692 -1.3109 -0.7569 -0.4459
  127MOL   C29840870   4.768   3.188   2.993  0.1891 -0.4494 -0.1560
  127MOL   H29940871   4.565   3.190   2.905  1.1414 -0.6838  1.8956
  127MOL   H30040872   4.889   3.264   2.729  1.7798 -1.3974  0.0151
  127MOL   H30140873   4.820   2.939   2.448 -0.7758 -0.4165  0.2193
  127MOL   H30240874   4.602   2.894   2.549 -0.5668 -0.8724  1.6742
  127MOL   H30340875   4.534   3.026   2.749 -0.4627  0.3214  1.4616
  127MOL   H30440876   4.869   3.221   2.966 -0.0635 -0.6492 -1.3641
  127MOL   H30540877   4.746   3.252   3.078 -1.6631 -0.5030 -0.5645
  127MOL   C30640878   4.766   3.048   3.055  0.6352 -0.1463  0.6057
  127MOL   C30740879   4.860   3.038   3.174  0.7656 -0.1883  0.2006
  127MOL   C30840880   4.831   3.089   3.303 -0.3617 -0.1025  0.0859
  127MOL   C30940881   4.913   3.058   3.411  0.3610 -0.6027 -0.3790
  127MOL  Cl31040882   4.852   3.106   3.570 -0.2079 -0.0345 -0.0041
  127MOL   C31140883   5.017   2.968   3.399 -0.4228 -0.0237  0.6678
  127MOL   C31240884   5.059   2.926   3.269 -0.3790 -0.3636  0.4052
  127MOL   C31340885   4.980   2.958   3.154 -0.7647 -0.0730 -0.2409
  127MOL   C31440886   4.630   2.994   3.097 -0.2117  0.0600 -0.7485
  127MOL   H31540887   4.809   2.991   2.973  3.0275  0.4438  1.3944
  127MOL   H31640888   4.744   3.151   3.315 -0.0495  0.0891  1.5655
  127MOL   H31740889   5.080   2.946   3.484 -1.4598  0.9414  1.7114
  127MOL   H31840890   5.147   2.864   3.263 -0.9381 -1.0701 -0.6995
  127MOL   H31940891   5.001   2.918   3.056  2.3554  0.8687  0.0102
  127MOL   H32040892   4.625   2.889   3.128 -0.7850  0.5716  0.9210
  127MOL   H32140893   4.590   3.061   3.173  0.6980  2.0860 -2.0104
  127MOL   H32240894   4.573   3.011   3.005  0.8375  0.2861 -1.3667
  128MOL     C140895   3.109   0.027   7.233  0.6015  0.2261 -0.0489
  128MOL     C240896   3.082   8.333   7.313  0.4906  0.4599  0.4183
  128MOL     C340897   2.953   8.272   7.318 -0.3427 -0.1080  0.3030
  128MOL     C440898   2.922   8.169   7.401  0.4386 -0.7420  0.0929
  128MOL    Cl540899   2.763   8.115   7.409  0.2809  0.0611 -0.2901
  128MOL     C640900   3.025   8.111   7.476 -0.3043 -0.1504 -0.3503
  128MOL     C740901   3.158   8.155   7.471  0.5576  0.5659  0.8851
  128MOL     C840902   3.184   8.262   7.385  0.4935 -0.7846  0.0984
  128MOL     C940903   2.999   0.137   7.232 -0.6409  0.0474 -0.1794
  128MOL    H1040904   3.136   8.435   7.131 -2.3278  0.8064 -1.0451
  128MOL    H1140905   2.870   8.319   7.266 -0.0415  1.7404  1.4625
  128MOL    H1240906   3.005   8.026   7.541 -0.9573 -0.7269 -1.2907
  128MOL    H1340907   3.241   8.121   7.531  0.4947 -2.0819 -0.4233
  128MOL    H1440908   3.286   8.295   7.389 -0.1563  1.1646  1.5042
  128MOL    H1540909   3.042   0.223   7.180 -1.6699  0.8771  0.3301
  128MOL    H1640910   2.918   0.098   7.171  0.4016 -2.9184  0.2583
  128MOL    H1740911   3.196   0.075   7.276  0.0613  1.6320 -0.4947
  128MOL    C1840912   2.945   0.182   7.370  0.2119  0.4561  0.2338
  128MOL    C1940913   3.064   0.209   7.468 -0.0758  0.0409  0.1295
  128MOL    C2040914   3.075   0.113   7.567  0.4892  0.9425 -0.0674
  128MOL    C2140915   3.182   0.117   7.661 -0.0231 -0.1840 -0.2303
  128MOL   Cl2240916   3.208   8.421   7.773  0.0065  0.2728 -0.2432
  128MOL    C2340917   3.277   0.223   7.646  0.2398  0.1108 -0.1772
  128MOL    C2440918   3.269   0.316   7.542  0.2225  0.2979  0.0196
  128MOL    C2540919   3.159   0.313   7.458  0.0053 -0.1253 -0.0232
  128MOL    C2640920   2.847   0.303   7.363 -0.2441 -0.4511 -0.1513
  128MOL    H2740921   2.887   0.095   7.402  0.4499  0.6431  1.1864
  128MOL    H2840922   3.001   0.034   7.575  2.2683 -1.1055 -2.8432
  128MOL    H2940923   3.372   0.219   7.698 -0.3020  3.9332  1.2161
  128MOL    H3040924   3.347   0.389   7.525  0.2555  0.1069 -0.6491
  128MOL    H3140925   3.162   0.383   7.376 -0.2536 -0.0748  0.0072
  128MOL    H3240926   2.828   0.328   7.467 -1.8115 -0.8273 -0.3394
  128MOL    H3340927   2.902   0.394   7.336  0.4631 -0.8054  0.0831
  128MOL    C3440928   2.717   0.278   7.286 -0.3105  0.0804 -0.4700
  128MOL    C3540929   2.644   0.157   7.334 -0.1959 -0.5158  0.3150
  128MOL    C3640930   2.621   0.057   7.244  0.5507 -0.8482  0.1421
  128MOL    C3740931   2.563   8.374   7.292  0.3828  0.1187  0.4996
  128MOL   Cl3840932   2.547   8.249   7.178 -0.1712  0.0689  0.2059
  128MOL    C3940933   2.517   8.359   7.421 -0.5368  0.0551  0.7469
  128MOL    C4040934   2.525   0.035   7.508 -0.1240  0.7121 -0.6611
  128MOL    C4140935   2.603   0.144   7.471 -0.2947 -0.7339  0.2737
  128MOL    C4240936   2.627   0.404   7.291 -0.3996  0.0491  0.0010
  128MOL    H4340937   2.747   0.260   7.183  1.7800  1.8978 -0.2141
  128MOL    H4440938   2.643   0.073   7.139  0.4689 -2.6051 -0.1584
  128MOL    H4540939   2.456   8.274   7.448 -2.4408  1.3756  0.7360
  128MOL    H4640940   2.473   0.042   7.602  2.2594 -0.2146  0.7726
  128MOL    H4740941   2.622   0.220   7.546 -2.2838 -1.6807  1.7872
  128MOL    H4840942   2.607   0.432   7.394 -0.0023  0.3308 -0.0001
  128MOL    H4940943   2.679   0.489   7.247  0.1344  1.0919  2.5411
  128MOL    C5040944   2.488   0.384   7.229  0.6595  0.0172  0.0258
  128MOL    C5140945   2.390   0.489   7.281  0.1531 -0.2013  0.2916
  128MOL    C5240946   2.359   0.603   7.202  0.1586 -0.5831  0.3423
  128MOL    C5340947   2.264   0.696   7.244  0.0039 -0.4962  0.0144
  128MOL   Cl5440948   2.219   0.822   7.136  0.2104  0.2621  0.3456
  128MOL    C5540949   2.214   0.678   7.376  0.4396  0.1436  0.1822
  128MOL    C5640950   2.251   0.571   7.464  0.7084  0.6238 -0.0171
  128MOL    C5740951   2.342   0.474   7.413  0.2633  0.1208 -0.1493
  128MOL    C5840952   2.496   0.368   7.074 -0.2615 -0.1615 -0.6075
  128MOL    H5940953   2.441   0.290   7.259  1.9888 -0.2479  1.3389
  128MOL    H6040954   2.404   0.615   7.105  1.7955  0.3230  1.1937
  128MOL    H6140955   2.142   0.752   7.408  1.1429  0.9268 -0.0142
  128MOL    H6240956   2.207   0.551   7.560 -3.2996  2.2570 -1.4144
  128MOL    H6340957   2.371   0.388   7.471  0.7713  1.2367  1.2816
  128MOL    H6440958   2.523   0.465   7.033  0.7138 -0.3805 -0.5008
  128MOL    H6540959   2.586   0.310   7.054 -1.1330 -1.3249 -1.1300
  128MOL    C6640960   2.383   0.303   6.998  0.1935  0.5786  0.3914
  128MOL    C6740961   2.400   0.331   6.849  0.6160  0.2304  0.4211
  128MOL    C6840962   2.490   0.255   6.772  0.1234  0.5429 -0.3117
  128MOL    C6940963   2.508   0.286   6.637  0.5264  0.5842 -0.1611
  128MOL   Cl7040964   2.623   0.199   6.544  0.3800 -0.5751  0.4032
  128MOL    C7140965   2.426   0.383   6.579  0.6922 -0.5041  0.0027
  128MOL    C7240966   2.341   0.465   6.661 -0.5269  0.0483 -0.1649
  128MOL    C7340967   2.323   0.434   6.793  0.3032  0.1771  0.0488
  128MOL    C7440968   2.365   0.150   7.024 -0.1489 -0.0424 -0.4200
  128MOL    H7540969   2.294   0.363   7.018 -0.2330 -0.1253  0.5946
  128MOL    H7640970   2.547   0.170   6.806 -0.4483  0.2548 -0.0645
  128MOL    H7740971   2.451   0.403   6.476 -2.0550 -1.3895 -0.8985
  128MOL    H7840972   2.287   0.549   6.620 -0.3075  0.7683  0.9911
  128MOL    H7940973   2.252   0.487   6.855  0.2009  1.8205 -1.4381
  128MOL    H8040974   2.442   0.087   6.980  1.0312 -0.2540  1.8688
  128MOL    H8140975   2.370   0.138   7.133  1.7753  0.1503 -0.4817
  128MOL    C8240976   2.234   0.088   6.970  0.9167  1.0029  0.3727
  128MOL    C8340977   2.238   0.028   6.832 -0.4167  0.0622 -0.0565
  128MOL    C8440978   2.192   0.099   6.716  0.0495 -0.1623  0.6093
  128MOL    C8540979   2.214   0.043   6.589 -1.0682 -0.5426  0.2406
  128MOL   Cl8640980   2.180   0.134   6.448 -0.3726  0.0244 -0.1015
  128MOL    C8740981   2.256   8.346   6.574  0.7040 -0.0809 -0.1404
  128MOL    C8840982   2.283   8.268   6.687 -0.2716 -0.6863 -0.2355
  128MOL    C8940983   2.271   8.326   6.812 -0.1811 -0.0905  0.0018
  128MOL    C9040984   2.158   8.424   7.070 -0.3379  0.3654  0.6229
  128MOL    H9140985   2.175   0.179   6.960 -0.7856 -0.1475 -0.2545
  128MOL    H9240986   2.158   0.201   6.724 -0.5295 -0.3423  0.4374
  128MOL    H9340987   2.253   8.299   6.477 -1.4381 -1.0212  0.3308
  128MOL    H9440988   2.317   8.167   6.673 -0.6586 -0.7552 -0.7177
  128MOL    H9540989   2.302   8.269   6.899  0.7395 -0.7431 -0.7443
  128MOL    H9640990   2.068   8.381   7.026  0.6770 -0.9273 -0.2280
  128MOL    H9740991   2.233   8.350   7.098  2.0479  1.9866 -1.2831
  128MOL    C9840992   2.116   0.054   7.206  0.3133  0.0889 -0.6745
  128MOL    C9940993   2.039   0.189   7.180  0.1675  0.2688 -0.4056
  128MOL   C10040994   1.915   0.187   7.110  0.8534  0.4637 -0.1299
  128MOL   C10140995   1.832   0.298   7.105  0.1463 -0.7215  0.2134
  128MOL  Cl10240996   1.680   0.281   7.012  0.2920  0.0130 -0.0921
  128MOL   C10340997   1.876   0.421   7.160  0.4116 -0.4713 -0.2894
  128MOL   C10440998   2.001   0.425   7.231  0.4626 -0.3399 -0.1653
  128MOL   C10540999   2.082   0.311   7.238  0.4965  0.2352  0.1034
  128MOL   C10641000   2.022   8.392   7.292 -0.9981 -0.6639  0.4546
  128MOL   H10741001   2.196   0.080   7.275 -2.0166 -1.8384  2.8840
  128MOL   H10841002   1.881   0.095   7.065  3.3830 -0.4366 -0.2993
  128MOL   H10941003   1.819   0.512   7.150  1.7436  0.5087  0.8023
  128MOL   H11041004   2.040   0.511   7.285  1.1645 -0.7901  0.0466
  128MOL   H11141005   2.175   0.313   7.294  0.9446  1.9102 -0.6755
  128MOL   H11241006   1.963   0.022   7.357 -0.0853  1.9252 -1.2068
  128MOL   H11341007   1.946   8.349   7.227 -0.9612  1.2094 -0.8676
  128MOL   C11441008   2.086   8.289   7.390  0.8958  0.0383  0.7013
  128MOL   C11541009   1.989   8.241   7.491 -0.0033 -0.1205  0.2860
  128MOL   C11641010   2.019   8.217   7.631  0.0176  0.2322  0.0673
  128MOL   C11741011   1.925   8.170   7.728 -0.2851  0.7605  0.1173
  128MOL  Cl11841012   1.970   8.160   7.885  0.2585 -0.1086  0.4316
  128MOL   C11941013   1.797   8.140   7.686 -0.5333 -0.4282  0.2958
  128MOL   C12041014   1.768   8.156   7.547 -0.2689 -0.2290  0.5278
  128MOL   C12141015   1.861   8.202   7.453 -0.3555  0.0670  0.1562
  128MOL   C12241016   2.163   8.182   7.311 -0.1652 -0.2235 -0.0538
  128MOL   H12341017   2.164   8.345   7.442  2.7228  0.2945 -2.2551
  128MOL   H12441018   2.122   8.238   7.653  0.5266 -0.3533 -1.6631
  128MOL   H12541019   1.722   8.109   7.757 -0.2152 -0.6191  0.5498
  128MOL   H12641020   1.668   8.148   7.510  0.5042 -3.3690 -0.9971
  128MOL   H12741021   1.832   8.215   7.349  1.4352  0.7934 -0.2704
  128MOL   H12841022   2.103   8.153   7.225  1.4441  1.6657 -1.8760
  128MOL   H12941023   2.249   8.232   7.266 -0.7213  3.4186  2.6737
  128MOL   C13041024   2.224   8.062   7.384  0.8143  0.4624 -0.2247
  128MOL   C13141025   2.115   7.964   7.452  0.2444 -0.5309  0.2255
  128MOL   C13241026   2.003   7.920   7.374 -0.2550 -0.4162 -0.0050
  128MOL   C13341027   1.910   7.831   7.436 -0.8934  0.1733 -0.1885
  128MOL  Cl13441028   1.772   7.770   7.351 -0.0394  0.4949 -0.3083
  128MOL   C13541029   1.928   7.788   7.562 -0.8544 -0.0880 -0.7075
  128MOL   C13641030   2.034   7.843   7.645 -0.4616 -0.8443  0.1396
  128MOL   C13741031   2.130   7.926   7.589 -0.3540 -0.0532 -0.8872
  128MOL   C13841032   2.328   7.984   7.301 -0.7900  0.1308 -0.9044
  128MOL   H13941033   2.270   8.108   7.471 -2.1282  0.1659  1.5719
  128MOL   H14041034   1.990   7.954   7.273  1.3674 -0.1200 -0.1278
  128MOL   H14141035   1.853   7.724   7.605  1.3742  0.0350  3.6299
  128MOL   H14241036   2.033   7.815   7.749  0.7921  0.2633  0.4591
  128MOL   H14341037   2.211   7.965   7.651 -1.0882  0.6402 -0.3508
  128MOL   H14441038   2.290   7.947   7.206 -1.3912 -0.2826 -0.5026
  128MOL   H14541039   2.408   8.055   7.280  1.3670 -1.3959  1.8362
  128MOL   C14641040   2.388   7.860   7.363 -0.1367  0.4229  0.3775
  128MOL   C14741041   2.467   7.790   7.253  0.5193 -0.4489  0.4616
  128MOL   C14841042   2.421   7.669   7.202  0.5130 -0.1160 -0.1718
  128MOL   C14941043   2.486   7.596   7.102  0.6709 -0.4929  0.0135
  128MOL  Cl15041044   2.416   7.453   7.042  0.1450  0.3489  0.2200
  128MOL   C15141045   2.602   7.653   7.040 -0.1946 -0.1863  0.4729
  128MOL   C15241046   2.646   7.781   7.082  0.2262 -0.3796  0.1153
  128MOL   C15341047   2.581   7.849   7.187  0.4548 -0.0340 -0.5931
  128MOL   C15441048   2.467   7.883   7.497 -0.0168  0.3968 -0.2199
  128MOL   H15541049   2.302   7.797   7.383 -0.5320  1.1658  1.0510
  128MOL   H15641050   2.339   7.627   7.257  1.7589 -0.0567  1.7684
  128MOL   H15741051   2.644   7.604   6.954  0.0322 -0.1137  0.5428
  128MOL   H15841052   2.725   7.830   7.027 -2.5404  4.3326  0.1090
  128MOL   H15941053   2.609   7.949   7.217 -1.4476  0.1007  0.8406
  128MOL   H16041054   2.545   7.952   7.464 -0.3066  1.3185  0.9966
  128MOL   H16141055   2.402   7.941   7.562 -1.1121 -0.4687 -0.5191
  128MOL   C16241056   2.510   7.751   7.575 -0.6026  0.1648  0.5744
  128MOL   C16341057   2.638   7.684   7.515  0.4060  0.3910 -0.6670
  128MOL   C16441058   2.633   7.548   7.477 -0.0365  0.1915  0.1159
  128MOL   C16541059   2.747   7.492   7.413 -0.4349  0.0883  0.0888
  128MOL  Cl16641060   2.729   7.341   7.334  0.5384  0.7494  0.1033
  128MOL   C16741061   2.874   7.558   7.413  0.2223 -0.1339  0.1407
  128MOL   C16841062   2.875   7.687   7.461  0.0089  0.0417 -0.1568
  128MOL   C16941063   2.760   7.756   7.511 -0.4178 -0.0367  0.9859
  128MOL   C17041064   2.514   7.754   7.728  0.2983  0.3071  0.0012
  128MOL   H17141065   2.431   7.677   7.561  1.3312 -1.7776 -0.4086
  128MOL   H17241066   2.543   7.490   7.485  0.8145 -0.8365  2.4249
  128MOL   H17341067   2.958   7.513   7.362  0.5504 -1.8487  2.1489
  128MOL   H17441068   2.972   7.734   7.456  0.5513 -1.1036 -0.7999
  128MOL   H17541069   2.749   7.859   7.541  0.8649  1.2665 -2.8265
  128MOL   H17641070   2.413   7.749   7.769  0.9043 -0.3837  1.4197
  128MOL   H17741071   2.555   7.656   7.752 -1.4573 -1.2446 -2.9636
  128MOL   C17841072   2.604   7.852   7.806  0.0104  0.4936 -0.0407
  128MOL   C17941073   2.553   7.995   7.809 -0.3284  0.8231  0.5756
  128MOL   C18041074   2.644   8.099   7.787  0.7537 -0.0964 -0.2548
  128MOL   C18141075   2.599   8.229   7.790  0.0647 -0.5180  0.3974
  128MOL  Cl18241076   2.711   8.361   7.760  0.6609 -0.0955 -0.3018
  128MOL   C18341077   2.462   8.259   7.813 -0.4035 -0.1522  0.0743
  128MOL   C18441078   2.373   8.156   7.843 -0.0361  0.3908 -1.0676
  128MOL   C18541079   2.422   8.023   7.840  0.3218 -0.1562 -0.1561
  128MOL   C18641080   2.619   7.805   7.955 -0.1195 -0.4308  0.0718
  128MOL   H18741081   2.704   7.845   7.763  0.1635 -1.3573  0.5847
  128MOL   H18841082   2.745   8.075   7.759  0.9388 -2.2432  2.0453
  128MOL   H18941083   2.434   8.363   7.801  2.2104  0.4819 -0.9783
  128MOL   H19041084   2.268   8.180   7.849 -0.3273 -0.7968 -1.2809
  128MOL   H19141085   2.356   7.944   7.871  1.2742 -0.3683  1.4123
  128MOL   H19241086   2.623   7.891   8.021 -0.1822 -0.3460 -0.0365
  128MOL   H19341087   2.522   7.767   7.986  0.6433 -0.5959  2.3877
  128MOL   C19441088   2.745   7.713   7.993  1.0444  0.0798 -0.0010
  128MOL   C19541089   2.879   7.755   7.923 -0.4820  0.6097 -0.3426
  128MOL   C19641090   2.958   7.656   7.860  0.8132  0.6502 -0.1098
  128MOL   C19741091   3.073   7.690   7.792 -0.5891  0.0147 -0.1609
  128MOL  Cl19841092   3.161   7.571   7.711  0.0728  0.3064  0.0054
  128MOL   C19941093   3.115   7.825   7.780  0.1487  0.8837 -0.1632
  128MOL   C20041094   3.032   7.924   7.841 -0.7798 -0.3570 -0.0556
  128MOL   C20141095   2.916   7.887   7.914 -0.4526 -0.2234  0.6220
  128MOL   C20241096   2.763   7.707   8.148  0.3452 -0.6085 -0.3994
  128MOL   H20341097   2.733   7.613   7.950  0.5691 -0.5946  1.6547
  128MOL   H20441098   2.937   7.550   7.860  1.2084  0.5084  3.0190
  128MOL   H20541099   3.208   7.854   7.732 -0.1738 -1.2935 -2.1557
  128MOL   H20641100   3.064   8.026   7.827  0.3475 -0.9160 -1.6485
  128MOL   H20741101   2.853   7.960   7.961  1.8330  1.7804  0.6453
  128MOL   H20841102   2.854   7.649   8.164  0.2118 -0.3362  1.4063
  128MOL   H20941103   2.785   7.806   8.188  3.2076 -1.0258 -0.8044
  128MOL   C21041104   2.649   7.638   8.230 -0.2351 -1.1177  0.7749
  128MOL   C21141105   2.616   7.506   8.165  0.2851  0.7449 -0.2849
  128MOL   C21241106   2.721   7.414   8.140 -0.5576 -0.0063  0.6531
  128MOL   C21341107   2.689   7.291   8.069 -1.2145  0.0513 -0.1799
  128MOL  Cl21441108   2.821   7.194   8.025 -0.2346 -0.0697 -0.6981
  128MOL   C21541109   2.560   7.262   8.030 -0.3172 -0.3808  0.0878
  128MOL   C21641110   2.460   7.352   8.066 -0.3342  0.2751 -0.0401
  128MOL   C21741111   2.485   7.475   8.126  0.4465 -0.1247 -0.1724
  128MOL   C21841112   2.693   7.624   8.378  0.3267 -0.1952  0.2933
  128MOL   H21941113   2.556   7.694   8.228 -0.5402 -1.6321  0.2726
  128MOL   H22041114   2.820   7.438   8.175 -0.5135 -0.2825  0.7174
  128MOL   H22141115   2.542   7.175   7.968 -0.4038  0.6160 -1.3048
  128MOL   H22241116   2.364   7.331   8.021 -0.2169  2.4740 -1.4111
  128MOL   H22341117   2.402   7.543   8.136 -0.5001 -1.4286  1.0627
  128MOL   H22441118   2.769   7.548   8.393 -0.1614 -0.8963 -0.7256
  128MOL   H22541119   2.753   7.713   8.399  0.0595 -0.1076  0.6907
  128MOL   C22641120   2.586   7.595   0.042  0.9834 -0.1796 -0.5570
  128MOL   C22741121   2.511   7.462   0.027 -0.4318 -0.1918  0.1506
  128MOL   C22841122   2.377   7.458   8.421 -0.4285 -0.1242  0.1445
  128MOL   C22941123   2.312   7.334   8.388  0.2144 -0.5944  0.4882
  128MOL  Cl23041124   2.144   7.333   8.351  0.0146 -0.0962 -0.3974
  128MOL   C23141125   2.386   7.218   8.406 -0.0151  0.2175 -0.1547
  128MOL   C23241126   2.516   7.218   0.024 -0.0871  0.6001  0.1448
  128MOL   C23341127   2.579   7.341   0.050 -0.3489  0.4176  0.0831
  128MOL   C23441128   2.630   7.622   0.189 -0.0313  1.0393 -0.1541
  128MOL   H23541129   2.512   7.675   0.031  1.2667  0.1646  0.0042
  128MOL   H23641130   2.326   7.553   8.426 -0.5043 -0.0987 -1.1573
  128MOL   H23741131   2.343   7.124   8.377  0.7451  0.1793 -1.2097
  128MOL   H23841132   2.573   7.128   0.037  0.1996  0.2472 -3.1459
  128MOL   H23941133   2.679   7.349   0.092 -0.0844  3.4659 -1.0361
  128MOL   H24041134   2.731   7.582   0.197 -0.0976  0.8018 -0.4962
  128MOL   H24141135   2.644   7.729   0.206 -1.7908  1.2681 -0.1140
  128MOL   C24241136   2.544   7.564   0.300 -0.5570  0.4359 -0.8805
  128MOL   C24341137   2.622   7.571   0.428 -0.4718  0.1816 -1.6634
  128MOL   C24441138   2.719   7.473   0.465  0.2276 -0.3444  0.0078
  128MOL   C24541139   2.765   7.454   0.594 -0.0718 -0.8209 -0.2186
  128MOL  Cl24641140   2.852   7.311   0.637  0.1291 -0.9448 -0.3233
  128MOL   C24741141   2.738   7.546   0.692 -0.4970  0.5989  0.7032
  128MOL   C24841142   2.660   7.652   0.658  0.9154  1.2202  0.0114
  128MOL   C24941143   2.608   7.674   0.526 -0.5132 -0.1793 -0.1278
  128MOL   C25041144   2.401   7.626   0.308  0.1757  0.2146  0.1241
  128MOL   H25141145   2.531   7.458   0.277 -0.4206 -0.1714  1.7122
  128MOL   H25241146   2.749   7.400   0.390  0.2160 -0.5016  0.1555
  128MOL   H25341147   2.772   7.521   0.792  0.4923  2.5843  0.8978
  128MOL   H25441148   2.633   7.717   0.740 -0.9290  0.0430  0.3814
  128MOL   H25541149   2.540   7.755   0.505 -0.9081 -0.7706 -1.1711
  128MOL   H25641150   2.413   7.734   0.306 -2.7849  0.5548 -0.6514
  128MOL   H25741151   2.351   7.605   0.214  1.2397 -2.6245  0.1391
  128MOL   C25841152   2.315   7.546   0.412  0.3665 -0.7062  0.1102
  128MOL   C25941153   2.195   7.635   0.444  0.6160 -0.0321 -0.1270
  128MOL   C26041154   2.184   7.706   0.571 -0.3905  0.0925  0.5829
  128MOL   C26141155   2.081   7.793   0.596  0.5076 -0.3551  0.7579
  128MOL  Cl26241156   2.061   7.867   0.752  0.5975  0.0394 -0.0462
  128MOL   C26341157   1.988   7.812   0.493  0.1225  0.2595  0.1976
  128MOL   C26441158   1.993   7.749   0.372  0.5424 -0.9527  0.0821
  128MOL   C26541159   2.098   7.663   0.345 -0.3267  0.7464  0.7003
  128MOL   C26641160   2.263   7.404   0.373 -0.5783 -0.3805 -0.0907
  128MOL   H26741161   2.372   7.536   0.504  2.2678  2.5778 -0.5942
  128MOL   H26841162   2.259   7.684   0.645  1.0287 -0.0032 -0.8714
  128MOL   H26941163   1.904   7.877   0.511 -1.0166 -1.1076 -0.0480
  128MOL   H27041164   1.918   7.762   0.296 -1.3208 -1.4839  1.7973
  128MOL   H27141165   2.084   7.607   0.254 -0.5520  0.8684  0.6602
  128MOL   H27241166   2.156   7.391   0.393 -0.7509  0.6977 -0.2790
  128MOL   H27341167   2.284   7.391   0.266  0.1926  0.6338 -0.0674
  128MOL   C27441168   2.345   7.301   0.449 -0.1694  0.4050 -0.1481
  128MOL   C27541169   2.319   7.308   0.601  0.3002  0.2186  0.1729
  128MOL   C27641170   2.415   7.359   0.686  1.0365  0.7637 -0.7539
  128MOL   C27741171   2.390   7.375   0.825  0.2733 -0.1216  0.6996
  128MOL  Cl27841172   2.497   7.466   0.924  0.1277 -0.2821  0.2796
  128MOL   C27941173   2.266   7.324   0.882  0.2794  0.6859 -0.0680
  128MOL   C28041174   2.174   7.266   0.794 -0.2520 -0.1258 -0.2376
  128MOL   C28141175   2.197   7.254   0.655 -0.5161 -0.0182  0.3315
  128MOL   C28241176   2.342   7.154   0.387  0.0088 -0.0859  0.9460
  128MOL   H28341177   2.453   7.319   0.456  0.3202 -2.9696  2.0908
  128MOL   H28441178   2.506   7.411   0.660  1.7368  0.9798  1.9554
  128MOL   H28541179   2.247   7.331   0.988  0.3493  0.4999 -0.0414
  128MOL   H28641180   2.076   7.235   0.828 -1.4647  3.5922 -0.1453
  128MOL   H28741181   2.118   7.222   0.589 -0.6205 -0.6274  0.7455
  128MOL   H28841182   2.254   7.101   0.422 -1.2767  0.8198 -0.8343
  128MOL   H28941183   2.328   7.158   0.279  1.2900  2.9933  0.8259
  128MOL   C29041184   2.468   7.067   0.423 -0.3307 -0.1979  0.0540
  128MOL   C29141185   2.430   6.917   0.398  0.0845 -0.9557 -0.2529
  128MOL   C29241186   2.449   6.826   0.501  0.7546 -0.7214  0.1784
  128MOL   C29341187   2.409   6.697   0.485 -0.2996  0.0773  0.2450
  128MOL  Cl29441188   2.428   6.583   0.614 -0.4955 -0.3205  0.1795
  128MOL   C29541189   2.344   6.653   0.374 -0.1745 -0.6010 -0.2225
  128MOL   C29641190   2.328   6.743   0.266 -0.5211 -0.1716  0.0069
  128MOL   C29741191   2.369   6.877   0.277  0.3037  0.2742 -0.3306
  128MOL   C29841192   2.607   7.116   0.355 -0.2145 -0.3752 -0.3122
  128MOL   H29941193   2.474   7.079   0.531  0.1872 -1.4537  0.1697
  128MOL   H30041194   2.492   6.850   0.597  0.2780  0.3864  0.1197
  128MOL   H30141195   2.299   6.555   0.364 -0.3206 -0.5106 -0.4587
  128MOL   H30241196   2.292   6.711   0.169 -0.8687  1.1036 -0.2990
  128MOL   H30341197   2.363   6.945   0.193  2.7203 -0.4884 -1.1850
  128MOL   H30441198   2.574   7.162   0.262  0.2022 -1.2454 -0.9022
  128MOL   H30541199   2.647   7.194   0.420  1.6080 -1.0295 -0.6103
  128MOL   C30641200   2.708   7.008   0.327  0.4045  0.0108 -0.7300
  128MOL   C30741201   2.802   7.074   0.224 -0.0920 -0.3142  0.0201
  128MOL   C30841202   2.821   7.007   0.096 -0.1459  0.6066 -0.1589
  128MOL   C30941203   2.901   7.068   8.434 -0.2438 -0.7486  0.4213
  128MOL  Cl31041204   2.930   6.973   8.296  0.2169  0.5003 -0.0821
  128MOL   C31141205   2.969   7.189   0.023  0.0399 -0.1451 -0.0956
  128MOL   C31241206   2.948   7.258   0.139 -0.1697 -0.8481  0.0170
  128MOL   C31341207   2.864   7.200   0.240  0.0399 -0.8835 -0.6382
  128MOL   C31441208   2.785   6.955   0.445 -0.0853 -0.9513 -0.2129
  128MOL   H31541209   2.667   6.930   0.263 -0.9321  0.1466 -0.0727
  128MOL   H31641210   2.786   6.907   0.076  0.3737  0.3379  0.2750
  128MOL   H31741211   3.040   7.225   8.385  0.9829 -1.0864  0.3548
  128MOL   H31841212   2.989   7.355   0.165  0.4951 -1.3623  0.8964
  128MOL   H31941213   2.855   7.257   0.332 -0.8841 -1.1668 -0.5501
  128MOL   H32041214   2.845   6.865   0.431  0.0107 -0.9197  0.0053
  128MOL   H32141215   2.849   7.039   0.474 -0.1157 -0.8895 -0.3241
  128MOL   H32241216   2.723   6.932   0.531 -1.7081 -1.3962 -1.4817
  129MOL     C141217   0.220   0.542   0.942  1.0917 -0.1917 -0.1045
  129MOL     C241218   0.096   0.518   0.858  0.0714  0.0515  0.1202
  129MOL     C341219   0.024   0.621   0.796 -0.1553  0.8825 -0.7762
  129MOL     C441220   8.368   0.586   0.696  0.3160 -0.6843  0.2298
  129MOL    Cl541221   8.283   0.708   0.611 -0.3261  0.4197  0.3968
  129MOL     C641222   8.339   0.453   0.665  0.3220  0.2060  0.1825
  129MOL     C741223   8.392   0.353   0.749 -0.0564  0.5031  0.1855
  129MOL     C841224   0.052   0.385   0.844  0.1703  0.0341 -0.9931
  129MOL     C941225   0.342   0.531   0.852  0.2760 -0.1328 -0.1408
  129MOL    H1041226   0.229   0.471   1.024  0.2917  0.2901  0.4109
  129MOL    H1141227   0.054   0.720   0.827  1.4580  0.3923 -0.7722
  129MOL    H1241228   8.274   0.430   0.581 -0.3604 -0.0170  0.7672
  129MOL    H1341229   8.379   0.247   0.732  1.4363  0.6148 -1.8952
  129MOL    H1441230   0.103   0.301   0.889 -0.5963  0.1724  0.1432
  129MOL    H1541231   0.341   0.429   0.814 -1.5877 -0.0523 -0.3428
  129MOL    H1641232   0.345   0.600   0.768  1.9235 -3.0369 -2.5729
  129MOL    H1741233   0.229   0.645   0.978 -2.0669  0.5477 -1.2604
  129MOL    C1841234   0.480   0.559   0.932 -0.3033 -0.0580  0.7832
  129MOL    C1941235   0.605   0.517   0.851  0.5901  0.0334 -0.4608
  129MOL    C2041236   0.685   0.405   0.885 -0.2158  0.6750 -0.0807
  129MOL    C2141237   0.780   0.360   0.795 -0.7971  0.1411  0.0421
  129MOL   Cl2241238   0.877   0.227   0.826 -0.0055  0.2528 -0.1785
  129MOL    C2341239   0.804   0.423   0.672 -0.0250 -0.2098  0.5136
  129MOL    C2441240   0.731   0.537   0.642  0.2935 -0.2982  0.9730
  129MOL    C2541241   0.635   0.584   0.730 -0.2484  0.2532 -0.2651
  129MOL    C2641242   0.486   0.698   0.995  0.0585  0.8529 -0.4475
  129MOL    H2741243   0.467   0.493   1.018  0.5713 -1.2238  0.0413
  129MOL    H2841244   0.661   0.350   0.975 -0.2224  0.8262  0.0100
  129MOL    H2941245   0.879   0.392   0.601 -0.4244  0.4363 -0.2006
  129MOL    H3041246   0.753   0.593   0.553 -0.6385  2.4643  2.4021
  129MOL    H3141247   0.567   0.664   0.703  0.9030  0.5771 -2.2361
  129MOL    H3241248   0.582   0.747   0.978 -1.0350  3.1002 -0.3669
  129MOL    H3341249   0.420   0.764   0.939  0.9329  1.3464 -0.9044
  129MOL    C3441250   0.465   0.713   1.148 -0.0532 -0.5345 -0.6062
  129MOL    C3541251   0.581   0.631   1.213  0.0599  0.0751 -0.4766
  129MOL    C3641252   0.711   0.686   1.208 -0.3813  0.3422  0.0840
  129MOL    C3741253   0.821   0.620   1.272  0.5092  0.0698  0.3594
  129MOL   Cl3841254   0.984   0.688   1.265  0.6417  0.4295 -0.2086
  129MOL    C3941255   0.795   0.503   1.349 -0.0564  0.2554 -0.2725
  129MOL    C4041256   0.666   0.453   1.355  0.4684 -0.2782  0.2182
  129MOL    C4141257   0.559   0.512   1.283 -0.3093 -0.5049  0.0585
  129MOL    C4241258   0.463   0.862   1.194  0.2163  0.4457  0.1822
  129MOL    H4341259   0.370   0.665   1.173  0.5758 -0.4379  2.1664
  129MOL    H4441260   0.729   0.782   1.161  2.2622  0.8643  2.0164
  129MOL    H4541261   0.868   0.455   1.412 -0.2395  0.8938  0.4451
  129MOL    H4641262   0.667   0.365   1.417 -0.6405 -0.7998 -0.4777
  129MOL    H4741263   0.457   0.477   1.288  0.1181 -2.4751 -3.2752
  129MOL    H4841264   0.560   0.896   1.229  1.9097 -1.7667 -2.2461
  129MOL    H4941265   0.433   0.929   1.114  1.4438  0.2727 -0.4207
  129MOL    C5041266   0.373   0.902   1.309 -0.6081  0.0040  0.7621
  129MOL    C5141267   0.228   0.911   1.272  0.5270  0.2669  0.5810
  129MOL    C5241268   0.170   1.040   1.253  0.4140  0.5755  1.0526
  129MOL    C5341269   0.033   1.043   1.216 -0.1614  0.3585 -0.2512
  129MOL   Cl5441270   8.379   1.192   1.191  0.0194  0.1451  0.1080
  129MOL    C5541271   8.395   0.925   1.193 -0.5120  0.0509 -0.1134
  129MOL    C5641272   0.013   0.801   1.219  0.1800  0.7540 -0.0248
  129MOL    C5741273   0.151   0.791   1.257  0.3693 -0.3331 -0.3932
  129MOL    C5841274   0.402   0.841   1.444  0.8400 -0.3110 -0.0168
  129MOL    H5941275   0.394   1.008   1.327 -2.1772  0.8279 -1.9707
  129MOL    H6041276   0.220   1.136   1.265  1.1781  0.5570 -1.6905
  129MOL    H6141277   8.290   0.921   1.165 -0.5093 -4.5097  0.2794
  129MOL    H6241278   8.395   0.710   1.194  1.3471  0.4147 -1.3743
  129MOL    H6341279   0.209   0.703   1.279  0.0849 -0.6147 -0.7498
  129MOL    H6441280   0.382   0.734   1.439 -0.8944  0.1045 -2.7718
  129MOL    H6541281   0.511   0.850   1.454  0.7657  1.0708 -0.3833
  129MOL    C6641282   0.335   0.898   1.573  0.1915  0.0936  0.4426
  129MOL    C6741283   0.383   0.828   1.702  0.1908  0.1627 -0.2639
  129MOL    C6841284   0.280   0.796   1.792 -0.1434  0.0891 -0.2606
  129MOL    C6941285   0.310   0.732   1.920 -0.9728 -0.1698  0.2633
  129MOL   Cl7041286   0.195   0.708   2.051  0.0740  0.0752  0.1003
  129MOL    C7141287   0.443   0.698   1.944 -0.1988  0.2683  0.1287
  129MOL    C7241288   0.549   0.721   1.854  0.1238  0.1112  0.4532
  129MOL    C7341289   0.517   0.787   1.730  0.4456  0.5426  0.1687
  129MOL    C7441290   0.317   1.052   1.597  1.0591  0.3670  0.3012
  129MOL    H7541291   0.234   0.860   1.563  0.0162 -0.4992  3.7873
  129MOL    H7641292   0.180   0.826   1.767  0.1474  0.2839 -1.2163
  129MOL    H7741293   0.474   0.655   2.038  0.3659 -0.0140 -0.1814
  129MOL    H7841294   0.645   0.682   1.884  1.5458  0.9943 -2.7027
  129MOL    H7941295   0.598   0.811   1.662 -0.0770  1.6312 -0.0891
  129MOL    H8041296   0.404   1.084   1.654  1.2960 -0.0569  0.1785
  129MOL    H8141297   0.314   1.104   1.501  0.0235  0.8069  0.5705
  129MOL    C8241298   0.198   1.098   1.677 -0.3055 -0.0090 -0.6357
  129MOL    C8341299   0.217   1.243   1.728 -0.6770  0.5774 -0.1277
  129MOL    C8441300   0.231   1.354   1.643  0.8458 -0.7539  0.3771
  129MOL    C8541301   0.246   1.486   1.690  0.1793  0.6382  0.0024
  129MOL   Cl8641302   0.246   1.617   1.580  0.2215 -0.0900  0.3992
  129MOL    C8741303   0.257   1.509   1.827 -0.1159  0.0363  0.3243
  129MOL    C8841304   0.253   1.400   1.915 -0.2380 -0.5059 -0.1017
  129MOL    C8941305   0.223   1.272   1.870  0.3795 -0.1081  0.1108
  129MOL    C9041306   0.067   1.083   1.601 -0.1099  0.2958  0.1103
  129MOL    H9141307   0.200   1.037   1.768  1.3277  1.7049  0.5104
  129MOL    H9241308   0.238   1.343   1.535 -3.6025  3.1122 -0.5090
  129MOL    H9341309   0.276   1.604   1.876 -0.2113  0.2886 -0.1221
  129MOL    H9441310   0.264   1.425   2.019  0.0210 -0.3771 -0.1588
  129MOL    H9541311   0.223   1.194   1.945 -1.0091  0.0053  0.2384
  129MOL    H9641312   0.051   1.133   1.506  0.7888  2.7341  1.1815
  129MOL    H9741313   0.052   0.977   1.582 -1.9009  0.7632 -1.2510
  129MOL    C9841314   8.374   1.108   1.678 -0.1781 -0.7026 -0.4652
  129MOL    C9941315   8.316   1.246   1.665 -0.0333 -0.2008  0.8272
  129MOL   C10041316   8.245   1.283   1.545  0.1596  0.1029 -0.1555
  129MOL   C10141317   8.192   1.408   1.519  0.1199  0.0287  0.2143
  129MOL  Cl10241318   8.127   1.453   1.370 -0.0216 -0.2977 -0.0389
  129MOL   C10341319   8.190   1.506   1.629 -0.1306  0.0369  0.6941
  129MOL   C10441320   8.269   1.471   1.741 -0.4570  0.2616 -0.3074
  129MOL   C10541321   8.329   1.345   1.764 -1.0314 -0.5962 -0.2612
  129MOL   C10641322   8.266   0.995   1.659  0.0643 -0.1192 -0.0966
  129MOL   H10741323   8.393   1.101   1.785 -1.6431 -3.0643 -0.3255
  129MOL   H10841324   8.236   1.211   1.466 -1.1809 -0.8272  0.8250
  129MOL   H10941325   8.152   1.605   1.612 -1.7545 -0.8565 -1.1678
  129MOL   H11041326   8.290   1.550   1.812 -0.2757  0.0859 -0.1646
  129MOL   H11141327   8.370   1.335   1.863  0.6861 -0.6570 -0.9653
  129MOL   H11241328   8.169   1.044   1.661  0.4277  0.6526  3.5095
  129MOL   H11341329   8.282   0.953   1.560  3.1669 -1.5228  0.9227
  129MOL   C11441330   8.282   0.885   1.761 -0.0049 -0.3765  0.0619
  129MOL   C11541331   8.254   0.938   1.901  0.4236 -0.5044  0.1567
  129MOL   C11641332   8.347   0.943   2.003 -0.0632  0.1065  0.0617
  129MOL   C11741333   8.323   0.996   2.132 -0.9207 -0.3960 -0.4695
  129MOL  Cl11841334   8.431   0.976   2.267  1.0389  0.2189  0.1070
  129MOL   C11941335   8.194   1.045   2.160  0.0852  0.0563  0.8104
  129MOL   C12041336   8.102   1.055   2.051  0.2766 -0.4122 -0.3910
  129MOL   C12141337   8.135   1.005   1.925  0.3156 -0.2711 -0.3974
  129MOL   C12241338   8.183   0.762   1.734  0.3358  0.8966  0.3457
  129MOL   H12341339   8.383   0.846   1.749 -0.3843 -0.3021 -4.2601
  129MOL   H12441340   0.011   0.904   1.986  0.1296  1.0551 -1.0934
  129MOL   H12541341   8.168   1.061   2.263 -1.2570 -0.0273  0.4988
  129MOL   H12641342   8.009   1.103   2.075  0.6971  1.1208 -1.7091
  129MOL   H12741343   8.067   1.009   1.841 -0.4109  1.5033  0.2561
  129MOL   H12841344   8.171   0.707   1.827  0.8203  0.0607 -0.0840
  129MOL   H12941345   8.080   0.792   1.712 -0.6228 -1.0573  2.0023
  129MOL   C13041346   8.233   0.659   1.634 -0.0287  0.3079  0.6108
  129MOL   C13141347   8.361   0.588   1.671  0.5189  0.0189 -0.5176
  129MOL   C13241348   0.025   0.573   1.571  0.0133  0.3371  0.1635
  129MOL   C13341349   0.138   0.499   1.603 -0.6592 -0.4288  0.0087
  129MOL  Cl13441350   0.246   0.469   1.481 -0.2255  0.6863 -0.2781
  129MOL   C13541351   0.160   0.444   1.729  0.0063 -0.4616  0.1239
  129MOL   C13641352   0.061   0.451   1.832  0.4486 -0.6267  0.4516
  129MOL   C13741353   8.379   0.527   1.801  0.4229 -0.7280  0.0566
  129MOL   C13841354   8.124   0.554   1.605  0.2103  0.1738 -0.8885
  129MOL   H13941355   8.250   0.701   1.535 -1.3331 -3.3664 -1.2518
  129MOL   H14041356   0.010   0.618   1.474 -3.7115  3.6591  2.1403
  129MOL   H14141357   0.244   0.378   1.743  0.4402 -0.0745 -0.6476
  129MOL   H14241358   0.070   0.398   1.926  3.5049 -1.0295 -0.0390
  129MOL   H14341359   8.301   0.544   1.873 -0.5962  0.8707 -1.3648
  129MOL   H14441360   8.154   0.481   1.530 -0.0302 -0.4220 -0.4108
  129MOL   H14541361   8.100   0.495   1.694  0.5334  1.1099 -0.1682
  129MOL   C14641362   7.990   0.601   1.544  0.6573 -0.0908  0.3074
  129MOL   C14741363   8.014   0.688   1.424  0.3553  0.2295  0.8523
  129MOL   C14841364   7.987   0.827   1.430  0.4627 -0.1283 -0.8041
  129MOL   C14941365   8.007   0.914   1.324 -0.8724 -0.1557 -0.0623
  129MOL  Cl15041366   7.965   1.079   1.332 -0.5645  0.1899  0.4270
  129MOL   C15141367   8.049   0.860   1.199  0.1963 -0.2445 -0.6883
  129MOL   C15241368   8.084   0.724   1.183  0.2882 -0.5236  0.2085
  129MOL   C15341369   8.056   0.633   1.296  0.1050 -0.0384  0.7279
  129MOL   C15441370   7.897   0.478   1.519  0.1483 -0.7212  0.6941
  129MOL   H15541371   7.936   0.667   1.612  1.5207 -0.6021  1.5115
  129MOL   H15641372   7.952   0.864   1.525 -1.8179 -2.2234 -0.7838
  129MOL   H15741373   8.057   0.923   1.112 -1.5653  0.2102 -0.5551
  129MOL   H15841374   8.121   0.690   1.087 -0.4688 -0.1477 -0.2224
  129MOL   H15941375   8.064   0.526   1.289 -3.2000 -0.4445  2.3024
  129MOL   H16041376   7.816   0.527   1.465  0.0331 -0.6617  0.9206
  129MOL   H16141377   7.939   0.406   1.449 -2.5781 -1.7821  0.0819
  129MOL   C16241378   7.832   0.413   1.643  0.7187  0.2007 -0.0430
  129MOL   C16341379   7.693   0.475   1.664  0.2313  0.4365 -0.7964
  129MOL   C16441380   7.587   0.457   1.573 -0.7869  0.4761  0.4878
  129MOL   C16541381   7.474   0.535   1.572  0.1210  0.6239  0.1883
  129MOL  Cl16641382   7.357   0.521   1.447  0.0540 -0.2645  0.0828
  129MOL   C16741383   7.457   0.636   1.666 -0.3232  0.2001 -0.3396
  129MOL   C16841384   7.554   0.655   1.765 -0.2580 -0.2854  0.1295
  129MOL   C16941385   7.670   0.576   1.766 -0.1853  0.0433  0.3179
  129MOL   C17041386   7.844   0.258   1.623  0.3816 -0.3110  0.0456
  129MOL   H17141387   7.899   0.437   1.726 -0.0928  1.5075  0.2503
  129MOL   H17241388   7.595   0.378   1.500  1.9102  0.7419  0.4226
  129MOL   H17341389   7.363   0.685   1.686  0.0035  0.1217  1.5001
  129MOL   H17441390   7.539   0.727   1.844 -3.6633 -2.3615  1.5350
  129MOL   H17541391   7.750   0.582   1.839 -1.2044  0.8913  1.3865
  129MOL   H17641392   7.795   0.235   1.528  1.2620 -1.8003 -0.0727
  129MOL   H17741393   7.945   0.218   1.613 -0.3480 -2.1405 -0.3161
  129MOL   C17841394   7.782   0.168   1.727 -0.0488 -0.4492 -1.0821
  129MOL   C17941395   7.796   0.019   1.695  0.5710  0.0685 -0.2020
  129MOL   C18041396   7.681   8.374   1.662 -0.0729  0.5508 -0.4359
  129MOL   C18141397   7.701   8.230   1.635  0.0786  0.0250 -0.4208
  129MOL  Cl18241398   7.560   8.131   1.618 -0.0814  0.2379  0.1239
  129MOL   C18341399   7.828   8.172   1.637  0.3720 -0.2519 -0.8237
  129MOL   C18441400   7.936   8.253   1.667  0.4301 -0.0272 -0.0334
  129MOL   C18541401   7.921   8.393   1.700  0.0113  0.3591 -0.2279
  129MOL   C18641402   7.825   0.191   1.879  0.9891  0.1407  0.3946
  129MOL   H18741403   7.673   0.178   1.725 -0.2497 -2.2240 -0.2611
  129MOL   H18841404   7.581   8.414   1.670  0.3718  1.2214  2.2399
  129MOL   H18941405   7.841   8.064   1.639  0.3444 -0.2572 -0.9081
  129MOL   H19041406   8.023   8.198   1.701  0.2281 -0.8485 -0.8359
  129MOL   H19141407   8.010   0.015   1.723  1.0669 -2.0320  1.9825
  129MOL   H19241408   7.923   0.148   1.896  0.5369 -0.9549  0.2996
  129MOL   H19341409   7.835   0.298   1.899  1.7212 -0.1646  1.6682
  129MOL   C19441410   7.728   0.137   1.978 -0.3723  0.7894  0.3022
  129MOL   C19541411   7.728   8.418   1.998  0.0826  0.0688 -0.6103
  129MOL   C19641412   7.852   8.342   2.015 -0.4307  0.2705 -0.3752
  129MOL   C19741413   7.842   8.197   2.019 -0.2719  0.1496  0.7334
  129MOL  Cl19841414   7.985   8.096   2.033 -0.2092 -0.6973 -0.6982
  129MOL   C19941415   7.722   8.131   1.989 -0.0530  0.1370 -0.6741
  129MOL   C20041416   7.603   8.208   1.980  0.2698 -0.6220 -0.0886
  129MOL   C20141417   7.605   8.347   1.987 -0.3560 -0.2668 -0.2221
  129MOL   C20241418   7.727   0.204   2.116 -0.0003  0.6201 -0.6173
  129MOL   H20341419   7.634   0.168   1.931 -0.4844 -0.1209 -0.0860
  129MOL   H20441420   7.947   8.393   2.026 -0.3467  0.0687 -0.1715
  129MOL   H20541421   7.723   8.023   1.989 -1.7625  0.0968  1.1339
  129MOL   H20641422   7.513   8.149   1.977  0.3337 -0.6609 -1.4894
  129MOL   H20741423   7.509   8.396   1.987  0.4509  1.3645  0.2428
  129MOL   H20841424   7.694   0.138   2.197  1.4288 -0.0035 -0.5253
  129MOL   H20941425   7.819   0.246   2.155 -0.3264 -1.1963  2.2584
  129MOL   C21041426   7.620   0.317   2.137 -0.1189 -0.2550  1.1719
  129MOL   C21141427   7.475   0.291   2.089  0.0488  0.4855  0.0549
  129MOL   C21241428   7.422   0.369   1.982 -0.0428 -0.4181  0.3222
  129MOL   C21341429   7.292   0.339   1.936 -0.2343  0.3370 -1.0348
  129MOL  Cl21441430   7.226   0.425   1.801 -0.1660  0.6048 -0.2349
  129MOL   C21541431   7.221   0.236   1.996 -0.1080 -0.4724 -0.2337
  129MOL   C21641432   7.267   0.162   2.107 -0.9520 -0.3140  0.1005
  129MOL   C21741433   7.402   0.185   2.152  0.2768  0.2362 -0.1964
  129MOL   C21841434   7.622   0.368   2.288  0.0247  0.3861  0.1430
  129MOL   H21941435   7.653   0.402   2.076 -1.5989 -0.0953  0.5817
  129MOL   H22041436   7.483   0.441   1.929  0.5518 -2.2376 -1.5374
  129MOL   H22141437   7.124   0.215   1.955 -0.9787 -0.8384  1.9683
  129MOL   H22241438   7.212   0.080   2.151 -0.9643  0.8102  2.2762
  129MOL   H22341439   7.439   0.146   2.246 -2.8309  0.5643  1.2201
  129MOL   H22441440   7.536   0.435   2.290 -1.2455 -1.2329  1.0164
  129MOL   H22541441   7.596   0.287   2.356  1.0227  0.5536  0.7234
  129MOL   C22641442   7.740   0.458   2.337 -0.3560  0.3142  0.1776
  129MOL   C22741443   7.785   0.559   2.230 -0.3279  0.1019 -0.5664
  129MOL   C22841444   7.701   0.667   2.204 -0.7761 -0.8324  0.0538
  129MOL   C22941445   7.731   0.756   2.095  0.6651 -0.2453  0.0449
  129MOL  Cl23041446   7.611   0.870   2.039  0.0593  0.4019  0.2115
  129MOL   C23141447   7.855   0.749   2.029 -0.8687  0.2736 -0.5762
  129MOL   C23241448   7.950   0.650   2.066  0.7248 -0.0769  0.3585
  129MOL   C23341449   7.909   0.554   2.161 -0.0667  0.8782 -0.8908
  129MOL   C23441450   7.725   0.525   2.482  0.9536  0.1402 -0.0233
  129MOL   H23541451   7.829   0.397   2.352 -0.7164 -0.0371  0.9602
  129MOL   H23641452   7.607   0.688   2.253 -0.2522 -0.9891  1.1515
  129MOL   H23741453   7.877   0.826   1.956  0.8587  0.4797  0.1290
  129MOL   H23841454   8.044   0.643   2.014 -0.3244 -0.7543 -1.4968
  129MOL   H23941455   7.970   0.465   2.172 -1.1574  0.0370 -1.5171
  129MOL   H24041456   7.796   0.607   2.492  0.4590  0.4090  1.4354
  129MOL   H24141457   7.634   0.584   2.495  0.4117 -1.2958  3.1615
  129MOL   C24241458   7.729   0.428   2.610 -0.8109  0.5744 -0.5038
  129MOL   C24341459   7.865   0.354   2.614 -0.0476 -0.4836 -0.3224
  129MOL   C24441460   7.867   0.215   2.595  0.5118  0.2004  0.3641
  129MOL   C24541461   7.986   0.147   2.577  0.1593  0.0736 -0.8831
  129MOL  Cl24641462   7.986   8.410   2.565  0.0825 -0.3395 -0.0945
  129MOL   C24741463   8.110   0.214   2.587 -0.4454  0.6944 -0.3769
  129MOL   C24841464   8.111   0.355   2.613 -0.6595 -0.0674 -0.4538
  129MOL   C24941465   7.991   0.425   2.623  0.1167 -0.5411 -0.2065
  129MOL   C25041466   7.697   0.499   2.743  0.5314  0.4922 -0.5100
  129MOL   H25141467   7.660   0.346   2.591 -1.7171  1.1127  0.4206
  129MOL   H25241468   7.774   0.162   2.585  1.4214 -1.0882 -1.3810
  129MOL   H25341469   8.204   0.162   2.579 -0.6506  0.3500 -0.5461
  129MOL   H25441470   8.204   0.408   2.598  0.0326 -1.7260 -2.2110
  129MOL   H25541471   7.998   0.531   2.641 -2.9977 -0.8509  3.4624
  129MOL   H25641472   7.747   0.439   2.819 -2.1017 -2.4547 -1.0007
  129MOL   H25741473   7.739   0.600   2.733 -1.2132  1.4482  1.4056
  129MOL   C25841474   7.544   0.511   2.770  0.0157  0.4344 -0.4026
  129MOL   C25941475   7.457   0.396   2.723  0.4798  0.4915 -0.5183
  129MOL   C26041476   7.348   0.412   2.633 -0.3193 -0.3998  0.1657
  129MOL   C26141477   7.278   0.295   2.597 -0.1000 -0.1858 -0.1775
  129MOL  Cl26241478   7.158   0.309   2.473  0.1585 -0.2716  0.1361
  129MOL   C26341479   7.310   0.169   2.643 -0.3733 -0.6524  0.7107
  129MOL   C26441480   7.414   0.154   2.740 -0.0310 -0.2030 -0.6833
  129MOL   C26541481   7.489   0.266   2.774  0.1069  0.1792  0.1782
  129MOL   C26641482   7.526   0.539   2.918 -0.2317  0.5834 -0.2240
  129MOL   H26741483   7.528   0.601   2.712 -2.7555  0.3153  0.1433
  129MOL   H26841484   7.320   0.507   2.590 -1.5167 -1.9697 -2.6103
  129MOL   H26941485   7.258   0.080   2.610 -2.3242  0.5508  0.5008
  129MOL   H27041486   7.443   0.061   2.786  4.7044  2.3422  1.8493
  129MOL   H27141487   7.564   0.255   2.852  0.1188  0.3894  0.1974
  129MOL   H27241488   7.419   0.548   2.937 -0.2185 -2.3546  1.5206
  129MOL   H27341489   7.556   0.450   2.974  1.5857  0.8165 -0.8121
  129MOL   C27441490   7.600   0.665   2.972  0.9853 -0.0471  0.5250
  129MOL   C27541491   7.516   0.791   2.956  0.1874  0.0788  0.3056
  129MOL   C27641492   7.568   0.897   2.885  0.1337 -0.0662 -0.2253
  129MOL   C27741493   7.499   1.020   2.874 -0.7517 -0.5853  0.3097
  129MOL  Cl27841494   7.575   1.151   2.795  0.1252 -0.1034  0.0991
  129MOL   C27941495   7.372   1.032   2.935 -0.2533 -0.1155 -0.1957
  129MOL   C28041496   7.317   0.916   2.996 -0.1406 -0.5035 -0.1635
  129MOL   C28141497   7.386   0.799   3.011 -0.1108  0.0774  0.0194
  129MOL   C28241498   7.641   0.649   3.121  0.2397  0.1508  0.1967
  129MOL   H28341499   7.693   0.685   2.920  1.1777  0.5148  1.0850
  129MOL   H28441500   7.673   0.889   2.859  0.2765 -5.8349  1.4221
  129MOL   H28541501   7.318   1.125   2.927 -0.0317  0.0494  0.2172
  129MOL   H28641502   7.218   0.928   3.039  0.7214  1.2486  1.4149
  129MOL   H28741503   7.334   0.719   3.062  0.7446 -0.3149  0.2931
  129MOL   H28841504   7.558   0.675   3.186 -0.1011 -1.7890  0.5737
  129MOL   H28941505   7.669   0.545   3.140 -0.0206 -0.4659 -2.6141
  129MOL   C29041506   7.768   0.721   3.155 -0.2891  0.2312  0.4584
  129MOL   C29141507   7.753   0.874   3.164 -0.0294 -1.0023  0.2123
  129MOL   C29241508   7.671   0.920   3.273 -0.1960 -0.5323 -0.2934
  129MOL   C29341509   7.663   1.059   3.302  0.2771 -0.1350 -0.7833
  129MOL  Cl29441510   7.573   1.113   3.430 -0.3857  0.0235 -0.1302
  129MOL   C29541511   7.735   1.151   3.217  0.6053 -0.2499 -0.4719
  129MOL   C29641512   7.809   1.103   3.103  1.2058  0.1615  0.7118
  129MOL   C29741513   7.817   0.967   3.076 -0.0202  0.3410  0.3260
  129MOL   C29841514   7.833   0.673   3.281 -0.6001  0.1209 -0.7231
  129MOL   H29941515   7.838   0.702   3.074  1.1763  1.7668  1.3425
  129MOL   H30041516   7.614   0.850   3.332 -0.0552 -0.7088 -0.3662
  129MOL   H30141517   7.734   1.258   3.235 -1.8587 -0.2079 -0.6673
  129MOL   H30241518   7.849   1.179   3.037  1.9343  3.2241  4.4172
  129MOL   H30341519   7.876   0.942   2.988 -0.9572  1.7646 -0.7472
  129MOL   H30441520   7.919   0.739   3.296 -0.1536 -0.6381  0.1108
  129MOL   H30541521   7.768   0.698   3.364  0.2169  3.1491 -0.9409
  129MOL   C30641522   7.885   0.523   3.295  0.1500  0.6190 -0.2594
  129MOL   C30741523   7.982   0.486   3.191  0.5692 -0.6208 -0.2395
  129MOL   C30841524   8.115   0.536   3.189  0.2719 -0.3760  0.2916
  129MOL   C30941525   8.194   0.505   3.079 -0.1907 -0.4891 -0.5383
  129MOL  Cl31041526   8.367   0.553   3.074 -0.3987  0.1884  0.1655
  129MOL   C31141527   8.148   0.420   2.978 -0.1769 -0.7888 -0.1563
  129MOL   C31241528   8.023   0.359   2.980 -0.4177  0.5048  0.5007
  129MOL   C31341529   7.937   0.403   3.085 -0.3155 -0.7015  1.1120
  129MOL   C31441530   7.954   0.503   3.430 -0.8163  0.0233  0.3671
  129MOL   H31541531   7.803   0.452   3.294 -0.9198  1.8396 -0.2713
  129MOL   H31641532   8.154   0.599   3.268  0.9172  0.4843 -0.7068
  129MOL   H31741533   8.213   0.402   2.893  2.0782  1.6877  0.9762
  129MOL   H31841534   7.991   0.288   2.905  1.2674  0.0473  0.2101
  129MOL   H31941535   7.832   0.379   3.080 -0.5085  0.1953  0.7825
  129MOL   H32041536   7.995   0.402   3.438 -0.7051 -0.1252 -1.9134
  129MOL   H32141537   8.024   0.587   3.438 -1.0561  0.3266 -0.6729
  129MOL   H32241538   7.879   0.515   3.509 -2.1009  0.6401 -0.9283
  130MOL     C141539   3.396   6.830   8.170  0.0024 -0.3840  0.2357
  130MOL     C241540   3.374   6.687   8.212 -0.1821  0.3937  0.0103
  130MOL     C341541   3.424   6.632   8.336  0.4110 -0.3122  1.2061
  130MOL     C441542   3.417   6.494   8.359  0.0226 -0.0025  0.4453
  130MOL    Cl541543   3.490   6.424   0.063  0.3470  0.1336 -0.2727
  130MOL     C641544   3.346   6.414   8.270  0.5384  0.3976  0.6217
  130MOL     C741545   3.277   6.469   8.158 -0.0640 -0.0992  0.1968
  130MOL     C841546   3.304   6.603   8.122 -0.7514  0.1452  0.2604
  130MOL     C941547   3.338   6.930   8.264 -0.3300 -0.1854  0.3012
  130MOL    H1041548   3.359   6.847   8.070 -1.9823 -0.8796  0.8571
  130MOL    H1141549   3.483   6.687   8.408  0.1465  0.8318  0.5691
  130MOL    H1241550   3.342   6.306   8.281  0.0216  0.1566 -1.6371
  130MOL    H1341551   3.230   6.412   8.079 -0.5615 -2.0141  1.8414
  130MOL    H1441552   3.248   6.642   8.038 -0.7436 -1.6192 -0.5905
  130MOL    H1541553   3.229   6.929   8.268 -0.4013  1.5854 -0.4664
  130MOL    H1641554   3.376   6.906   8.363  0.5896  3.3652  0.8744
  130MOL    H1741555   3.504   6.840   8.162  0.1931 -2.1421  0.2513
  130MOL    C1841556   3.396   7.072   8.248 -0.0384 -0.2055 -0.0841
  130MOL    C1941557   3.361   7.131   8.110  0.4393 -0.2679  0.2832
  130MOL    C2041558   3.459   7.191   8.031 -0.1304  0.1757 -0.2989
  130MOL    C2141559   3.441   7.263   7.912 -0.1220  0.0524  0.9622
  130MOL   Cl2241560   3.578   7.339   7.834  0.0830  0.2484 -0.2170
  130MOL    C2341561   3.310   7.262   7.865 -0.0571 -0.6415  0.1421
  130MOL    C2441562   3.205   7.199   7.936 -0.4587 -0.2461  0.3072
  130MOL    C2541563   3.228   7.131   8.057  0.4308  0.0460  1.1681
  130MOL    C2641564   3.342   7.165   8.357 -0.8460  0.1846 -0.5158
  130MOL    H2741565   3.501   7.044   8.257 -0.1031 -0.4400 -0.0569
  130MOL    H2841566   3.559   7.185   8.071 -0.4291  2.3275  0.8178
  130MOL    H2941567   3.287   7.308   7.770 -0.0077 -2.6166 -0.8485
  130MOL    H3041568   3.106   7.187   7.893 -1.0074 -0.5776  1.6244
  130MOL    H3141569   3.140   7.092   8.107  0.6978 -2.2276 -0.0526
  130MOL    H3241570   3.257   7.214   8.311 -1.6699 -0.2054  0.5711
  130MOL    H3341571   3.305   7.105   0.005  2.0337  0.4034  1.0114
  130MOL    C3441572   3.450   7.261   8.408 -0.0800 -0.2330  0.0308
  130MOL    C3541573   3.505   7.352   8.304 -0.0115  0.0976  0.7452
  130MOL    C3641574   3.642   7.357   8.275 -0.6114 -0.0770 -0.3036
  130MOL    C3741575   3.696   7.449   8.179  0.6381 -0.0365 -0.2491
  130MOL   Cl3841576   3.866   7.461   8.142 -0.3147 -0.0767  0.0374
  130MOL    C3941577   3.614   7.534   8.116  0.1643 -0.4164 -0.1904
  130MOL    C4041578   3.480   7.533   8.140  0.2399 -0.3927  0.3585
  130MOL    C4141579   3.424   7.442   8.234  0.5098  0.3614  0.3092
  130MOL    C4241580   3.390   7.345   0.087 -0.2897 -0.0118  1.0272
  130MOL    H4341581   3.525   7.196   0.018 -0.6483 -0.7483  0.2300
  130MOL    H4441582   3.716   7.309   8.337  0.5658 -0.1251 -1.7170
  130MOL    H4541583   3.648   7.609   8.045 -1.1203  1.0246  0.6827
  130MOL    H4641584   3.420   7.600   8.080 -0.0386  0.8208  1.9492
  130MOL    H4741585   3.319   7.437   8.260  0.4448  2.1742  0.4978
  130MOL    H4841586   3.318   7.414   0.044  0.2507 -1.4443 -2.3558
  130MOL    H4941587   3.332   7.285   0.157 -0.1325 -0.8289  0.4661
  130MOL    C5041588   3.493   7.421   0.171  0.1773  0.4812 -0.2567
  130MOL    C5141589   3.446   7.558   0.229  0.3854  1.0843  0.0611
  130MOL    C5241590   3.473   7.671   0.159 -0.3528 -0.0142 -0.2741
  130MOL    C5341591   3.440   7.797   0.217  0.4062  0.8504  0.2851
  130MOL   Cl5441592   3.469   7.940   0.130 -0.4502 -0.2894 -0.0485
  130MOL    C5541593   3.353   7.801   0.330 -0.0960  0.3302  0.7811
  130MOL    C5641594   3.312   7.681   0.392  0.9667 -0.0555 -0.1204
  130MOL    C5741595   3.359   7.556   0.338 -0.3106 -0.4885 -0.9084
  130MOL    C5841596   3.557   7.330   0.276 -0.0113 -0.9351  0.6900
  130MOL    H5941597   3.580   7.445   0.111 -0.4043  1.6056 -0.6775
  130MOL    H6041598   3.526   7.672   0.065  0.4192 -1.1105  0.1432
  130MOL    H6141599   3.303   7.893   0.354  2.0206  1.9088 -0.7632
  130MOL    H6241600   3.243   7.680   0.475  1.2135  1.1809  0.1161
  130MOL    H6341601   3.335   7.459   0.376  0.1811  0.2046  1.2205
  130MOL    H6441602   3.489   7.329   0.361 -1.7217  3.6924 -0.4722
  130MOL    H6541603   3.560   7.229   0.234 -1.1707  0.0509 -1.8209
  130MOL    C6641604   3.705   7.364   0.322  0.1052  0.2086 -1.0814
  130MOL    C6741605   3.757   7.501   0.284  0.0981  0.2169 -0.4442
  130MOL    C6841606   3.845   7.509   0.173  0.6128 -0.6061  0.4319
  130MOL    C6941607   3.912   7.628   0.146 -0.4851  0.4172  0.4614
  130MOL   Cl7041608   4.035   7.632   0.021  0.2014 -0.0656 -0.4568
  130MOL    C7141609   3.885   7.737   0.228 -0.1779  0.0355  0.0632
  130MOL    C7241610   3.794   7.733   0.332 -0.6454  0.2687 -0.0606
  130MOL    C7341611   3.732   7.619   0.360 -0.0013 -0.4404 -0.0420
  130MOL    C7441612   3.727   7.343   0.475 -0.0378  0.0765  0.3332
  130MOL    H7541613   3.775   7.296   0.274 -0.9373  0.1415 -2.5399
  130MOL    H7641614   3.870   7.421   0.115  2.1378 -0.5466  0.9775
  130MOL    H7741615   3.943   7.827   0.210  0.0016  0.4645  2.5784
  130MOL    H7841616   3.783   7.822   0.391  2.2441  0.3276  0.4885
  130MOL    H7941617   3.665   7.629   0.445  1.1076 -0.1472  0.8047
  130MOL    H8041618   3.836   7.350   0.480 -0.0840  2.0563 -0.9423
  130MOL    H8141619   3.680   7.416   0.540 -0.2785 -0.0843  0.3412
  130MOL    C8241620   3.693   7.201   0.521 -0.2378 -0.2489  0.9669
  130MOL    C8341621   3.772   7.090   0.447  0.1245 -0.1642  0.0035
  130MOL    C8441622   3.699   6.988   0.384  0.2634  0.1726 -0.2393
  130MOL    C8541623   3.759   6.868   0.336  0.1252 -0.2792 -0.9547
  130MOL   Cl8641624   3.660   6.752   0.257 -0.3053 -0.2436  0.1756
  130MOL    C8741625   3.898   6.851   0.345 -0.3675 -0.2029 -0.2129
  130MOL    C8841626   3.976   6.954   0.405  0.1709 -0.8564  0.1632
  130MOL    C8941627   3.911   7.068   0.454 -0.2158  0.4719 -0.3890
  130MOL    C9041628   3.724   7.193   0.675  0.1899  0.3795  0.1273
  130MOL    H9141629   3.584   7.194   0.517 -0.1244 -1.3318 -1.1656
  130MOL    H9241630   3.591   6.992   0.384  0.1899 -0.3954  3.2404
  130MOL    H9341631   3.950   6.760   0.319 -2.9645 -1.4109 -1.3789
  130MOL    H9441632   4.084   6.952   0.413  0.2735  2.2936  0.2730
  130MOL    H9541633   3.968   7.153   0.489  0.9386  0.0937 -1.3157
  130MOL    H9641634   3.829   7.217   0.695  0.5359 -1.2692  0.3617
  130MOL    H9741635   3.668   7.273   0.723  1.1080  1.1817 -0.1162
  130MOL    C9841636   3.693   7.053   0.737  0.6289  0.8835 -0.1786
  130MOL    C9941637   3.746   7.035   0.885  0.0277  0.8986  0.3085
  130MOL   C10041638   3.816   6.921   0.935 -0.6299 -0.0571 -0.2816
  130MOL   C10141639   3.843   6.909   1.074 -0.5387  0.5393  0.5227
  130MOL  Cl10241640   3.924   6.764   1.127  0.1065  0.3399 -0.0477
  130MOL   C10341641   3.814   7.009   1.158  0.0282 -0.0566  0.5203
  130MOL   C10441642   3.767   7.134   1.106 -0.2604 -0.5945  0.4204
  130MOL   C10541643   3.727   7.144   0.974 -0.8357 -0.7830 -0.3008
  130MOL   C10641644   3.543   7.000   0.723 -0.0308  0.2700 -0.0063
  130MOL   H10741645   3.760   6.978   0.693  3.2331  1.5683  2.4307
  130MOL   H10841646   3.840   6.837   0.873  0.7419 -0.0826  0.2654
  130MOL   H10941647   3.833   7.017   1.264 -2.3558  3.3446  0.7521
  130MOL   H11041648   3.747   7.212   1.178  2.1636  0.3351  0.1244
  130MOL   H11141649   3.682   7.233   0.932  1.9330  1.0700  0.4909
  130MOL   H11241650   3.533   6.992   0.614 -1.3317 -0.6356  0.1813
  130MOL   H11341651   3.532   6.896   0.751 -2.0231  0.9510  1.8479
  130MOL   C11441652   3.430   7.074   0.799 -0.2594  0.1964 -0.2349
  130MOL   C11541653   3.375   7.191   0.720 -0.0402 -0.0837 -0.3303
  130MOL   C11641654   3.293   7.171   0.602 -0.4021 -0.1975 -0.1973
  130MOL   C11741655   3.223   7.282   0.561  0.1129 -0.5451  0.5683
  130MOL  Cl11841656   3.146   7.277   0.407  0.6386 -0.2280 -0.3301
  130MOL   C11941657   3.220   7.406   0.624 -0.9805  0.0514 -0.3990
  130MOL   C12041658   3.308   7.424   0.735  0.1398 -0.1282  0.1306
  130MOL   C12141659   3.389   7.319   0.784 -0.5434  0.2933 -0.6887
  130MOL   C12241660   3.330   6.974   0.857 -0.3636 -0.3450 -0.1732
  130MOL   H12341661   3.480   7.120   0.884 -0.7662  1.9926 -0.8691
  130MOL   H12441662   3.289   7.074   0.554 -0.3038  1.1341 -2.9797
  130MOL   H12541663   3.160   7.479   0.572 -1.2306 -0.1934 -0.4540
  130MOL   H12641664   3.314   7.529   0.762 -2.0760  0.1128 -0.2576
  130MOL   H12741665   3.461   7.334   0.862  0.3897 -0.0019 -1.4771
  130MOL   H12841666   3.273   6.940   0.772 -0.7160 -1.2267  0.4108
  130MOL   H12941667   3.379   6.886   0.899  2.4512  0.0593 -2.4713
  130MOL   C13041668   3.215   7.024   0.948 -0.0592 -0.5521  0.1752
  130MOL   C13141669   3.073   6.979   0.904 -0.1794 -0.6210 -0.6772
  130MOL   C13241670   3.038   6.848   0.908  0.3759 -0.4735 -0.1766
  130MOL   C13341671   2.904   6.812   0.875  0.5399 -0.0997  0.8780
  130MOL  Cl13441672   2.870   6.641   0.872 -0.1977  0.2360  0.4771
  130MOL   C13541673   2.802   6.907   0.841  0.2059 -0.1031 -0.3832
  130MOL   C13641674   2.844   7.045   0.850 -0.3247 -1.3286 -0.3859
  130MOL   C13741675   2.979   7.080   0.878  0.2641  0.7423 -0.8261
  130MOL   C13841676   3.243   6.994   1.094 -0.4455 -0.2930  0.0886
  130MOL   H13941677   3.210   7.132   0.948 -1.1348 -0.5933 -0.0098
  130MOL   H14041678   3.114   6.777   0.938 -1.0249 -2.6611 -1.6459
  130MOL   H14141679   2.705   6.869   0.814 -0.7562  1.2794  1.0370
  130MOL   H14241680   2.779   7.125   0.818  3.1753  1.6715 -0.2643
  130MOL   H14341681   3.016   7.181   0.866  2.4812  0.3003  1.7476
  130MOL   H14441682   3.151   6.984   1.151  0.1777  0.2065  1.1972
  130MOL   H14541683   3.292   6.897   1.104  2.1943  1.3570  5.2324
  130MOL   C14641684   3.346   7.084   1.161  0.1334  0.1198 -0.1954
  130MOL   C14741685   3.320   7.236   1.153  0.3390  0.3196 -0.1483
  130MOL   C14841686   3.423   7.324   1.131 -0.3022 -0.8918 -0.0262
  130MOL   C14941687   3.407   7.463   1.153 -0.5810  0.0429  0.4993
  130MOL  Cl15041688   3.541   7.567   1.157  0.0201  0.4939 -0.0945
  130MOL   C15141689   3.278   7.514   1.175 -0.3985 -0.1709  0.1712
  130MOL   C15241690   3.167   7.428   1.177 -0.3567  0.0326  0.1017
  130MOL   C15341691   3.188   7.289   1.176 -0.0445 -0.4705  0.2104
  130MOL   C15441692   3.395   7.036   1.298  0.0604  0.0566  0.2861
  130MOL   H15541693   3.425   7.052   1.093  0.5632 -1.3981  0.9927
  130MOL   H15641694   3.523   7.289   1.109 -0.4369 -1.2978  0.0083
  130MOL   H15741695   3.261   7.617   1.201 -1.7090 -0.1751 -0.6191
  130MOL   H15841696   3.066   7.462   1.191 -1.0598 -2.1598  0.4209
  130MOL   H15941697   3.109   7.216   1.176 -1.0689  0.5938 -1.5115
  130MOL   H16041698   3.395   6.927   1.298  0.7146  0.0306  1.8901
  130MOL   H16141699   3.497   7.076   1.292 -0.6453  1.8369 -0.1198
  130MOL   C16241700   3.339   7.089   1.429 -0.1269  0.2370  0.1704
  130MOL   C16341701   3.364   6.977   1.535 -0.3592  0.1405 -0.2248
  130MOL   C16441702   3.259   6.920   1.597 -0.4039  0.5157  0.3062
  130MOL   C16541703   3.272   6.812   1.685  0.2709 -0.0141  0.2669
  130MOL  Cl16641704   3.132   6.742   1.758  0.3355  0.1122  0.1211
  130MOL   C16741705   3.403   6.772   1.718 -0.3040 -0.9173 -0.1169
  130MOL   C16841706   3.515   6.829   1.653 -0.5791  1.0685 -0.7809
  130MOL   C16941707   3.496   6.941   1.577 -0.1401  0.2867 -0.0706
  130MOL   C17041708   3.405   7.218   1.479 -0.4147  0.0581  0.4095
  130MOL   H17141709   3.232   7.106   1.419  0.4536  2.4143 -2.9612
  130MOL   H17241710   3.158   6.955   1.580 -0.9434 -1.8904 -1.6001
  130MOL   H17341711   3.411   6.690   1.788  1.8693 -0.1424  0.5777
  130MOL   H17441712   3.612   6.793   1.682 -0.3927  2.3624  0.2447
  130MOL   H17541713   3.581   6.992   1.535  0.2327 -0.2133  0.0794
  130MOL   H17641714   3.511   7.196   1.495 -0.1109  0.5778 -0.8153
  130MOL   H17741715   3.405   7.288   1.396  2.2403  0.9694  1.1063
  130MOL   C17841716   3.348   7.284   1.607 -0.5941  0.8655 -0.1098
  130MOL   C17941717   3.445   7.391   1.654 -0.0983 -0.1363  0.4247
  130MOL   C18041718   3.520   7.374   1.772 -0.4070  1.4284 -0.0154
  130MOL   C18141719   3.610   7.475   1.808  0.7302  0.3291 -0.1541
  130MOL  Cl18241720   3.703   7.455   1.953 -0.2555  0.1803 -0.4083
  130MOL   C18341721   3.623   7.595   1.736 -0.1239 -0.4094  0.8962
  130MOL   C18441722   3.528   7.618   1.632 -0.3589 -0.5598  0.1561
  130MOL   C18541723   3.444   7.516   1.587 -0.2407 -0.5665 -0.5902
  130MOL   C18641724   3.195   7.323   1.599 -0.3832  0.1831  0.1010
  130MOL   H18741725   3.347   7.210   1.686  2.9802 -0.3322 -1.0904
  130MOL   H18841726   3.508   7.286   1.833 -2.3464  1.1810 -0.7189
  130MOL   H18941727   3.688   7.674   1.771 -2.2894  1.7397  0.2604
  130MOL   H19041728   3.527   7.705   1.568 -2.0529 -1.0404 -0.5076
  130MOL   H19141729   3.370   7.535   1.511 -0.6724 -2.2646 -0.6184
  130MOL   H19241730   3.176   7.430   1.600 -0.5565  0.2535 -3.0730
  130MOL   H19341731   3.154   7.291   1.503  3.1968 -0.7165 -1.2374
  130MOL   C19441732   3.119   7.277   1.724 -0.0026 -0.0643 -0.0923
  130MOL   C19541733   3.177   7.339   1.848 -0.4268  0.4182  0.4514
  130MOL   C19641734   3.186   7.482   1.856  0.4099 -0.2063 -0.9682
  130MOL   C19741735   3.252   7.539   1.965  0.0042  0.7993  0.0925
  130MOL  Cl19841736   3.288   7.707   1.954  0.2334  0.2985 -0.0447
  130MOL   C19941737   3.300   7.466   2.069  0.8060  0.2636 -0.3477
  130MOL   C20041738   3.290   7.328   2.058 -0.3598 -0.1160 -0.6968
  130MOL   C20141739   3.233   7.265   1.951  0.5784 -0.7951  0.5077
  130MOL   C20241740   2.971   7.309   1.718 -0.4543 -0.1037 -0.0909
  130MOL   H20341741   3.110   7.168   1.727 -0.7478 -0.0035  0.0117
  130MOL   H20441742   3.139   7.546   1.783  0.3665  1.4842  0.4976
  130MOL   H20541743   3.362   7.512   2.146  1.4165  1.0456 -1.2905
  130MOL   H20641744   3.341   7.273   2.136  0.4160  1.3480 -0.1541
  130MOL   H20741745   3.231   7.157   1.945  1.2421 -0.8382  0.9386
  130MOL   H20841746   2.917   7.269   1.804 -1.1251  1.8559  0.4319
  130MOL   H20941747   2.957   7.417   1.719 -0.4672 -0.1017 -0.5686
  130MOL   C21041748   2.891   7.265   1.595 -0.5896  0.1310  0.3220
  130MOL   C21141749   2.903   7.117   1.559  0.2573  0.1201  0.1999
  130MOL   C21241750   2.853   7.021   1.646  0.6255  0.6954 -0.1740
  130MOL   C21341751   2.841   6.887   1.596  0.2226 -0.3195 -0.2288
  130MOL  Cl21441752   2.784   6.758   1.698 -0.0666 -0.0573  0.2987
  130MOL   C21541753   2.893   6.854   1.471  0.2462 -0.3512  0.7058
  130MOL   C21641754   2.955   6.949   1.392 -0.7952  0.0288  0.0455
  130MOL   C21741755   2.959   7.084   1.435  0.7435  0.8221  0.8810
  130MOL   C21841756   2.745   7.305   1.594 -0.2796 -0.0613  0.3776
  130MOL   H21941757   2.945   7.311   1.513 -0.7279  0.1796  0.2577
  130MOL   H22041758   2.807   7.053   1.738  0.4776 -0.1816  0.0541
  130MOL   H22141759   2.885   6.758   1.422  0.9713  0.8451 -1.8525
  130MOL   H22241760   3.002   6.919   1.300 -0.3986  0.4204  0.1175
  130MOL   H22341761   2.975   7.150   1.351  0.0610 -2.0482 -1.6014
  130MOL   H22441762   2.700   7.238   1.521  3.7447 -1.4421 -0.9650
  130MOL   H22541763   2.699   7.265   1.684 -1.3197  2.5377  1.0610
  130MOL   C22641764   2.707   7.454   1.572 -0.0288  0.0781 -0.3645
  130MOL   C22741765   2.764   7.510   1.444  0.2641 -0.0900 -0.4439
  130MOL   C22841766   2.748   7.441   1.319 -0.0839 -0.5267  0.0475
  130MOL   C22941767   2.793   7.503   1.200  0.1837  0.5892 -0.3951
  130MOL  Cl23041768   2.784   7.415   1.050  0.1273 -0.0991  0.0410
  130MOL   C23141769   2.851   7.626   1.204 -0.0346  0.2893 -0.0920
  130MOL   C23241770   2.874   7.688   1.329 -0.2969  0.0576 -0.0897
  130MOL   C23341771   2.830   7.634   1.453  0.3343  0.1929  0.0380
  130MOL   C23441772   2.550   7.453   1.570 -0.1126  1.3236  0.0361
  130MOL   H23541773   2.728   7.511   1.662  0.5548  2.0564 -1.7301
  130MOL   H23641774   2.693   7.349   1.319 -1.6597  0.3807 -1.8690
  130MOL   H23741775   2.896   7.665   1.113  0.3049 -1.2604 -0.6087
  130MOL   H23841776   2.939   7.773   1.345  0.9811 -0.8562 -0.3061
  130MOL   H23941777   2.862   7.677   1.546 -1.0274  1.3813 -0.0227
  130MOL   H24041778   2.521   7.379   1.496 -1.1006  0.9435  0.7891
  130MOL   H24141779   2.517   7.412   1.666  1.5281 -0.7521 -0.2461
  130MOL   C24241780   2.480   7.577   1.534  0.2525 -0.4371 -0.4452
  130MOL   C24341781   2.346   7.547   1.481 -0.0482  1.3505 -0.0769
  130MOL   C24441782   2.297   7.589   1.356  0.1106 -0.5311  0.5510
  130MOL   C24541783   2.164   7.579   1.320 -0.0027  0.4502  0.5642
  130MOL  Cl24641784   2.114   7.621   1.160 -0.2720 -0.0766  0.1628
  130MOL   C24741785   2.074   7.529   1.412  0.6642  0.1878  0.1433
  130MOL   C24841786   2.116   7.481   1.534  0.1943  0.0128 -0.3000
  130MOL   C24941787   2.251   7.489   1.567  0.0077 -0.5556 -0.9442
  130MOL   C25041788   2.488   7.684   1.647  0.1545 -0.2797 -0.7166
  130MOL   H25141789   2.535   7.613   1.447 -2.8055  0.7634 -1.9541
  130MOL   H25241790   2.368   7.636   1.289 -0.9652  0.1415 -0.1412
  130MOL   H25341791   1.971   7.514   1.382  1.2188  0.5140 -2.0181
  130MOL   H25441792   2.038   7.435   1.592  1.2838  0.6186  1.6991
  130MOL   H25541793   2.281   7.439   1.658  1.1852 -0.2522 -1.1634
  130MOL   H25641794   2.426   7.657   1.733  1.0447 -1.3352 -0.3874
  130MOL   H25741795   2.587   7.697   1.690 -0.2748 -2.6852  1.0966
  130MOL   C25841796   2.451   7.825   1.595 -0.7322  0.0588  0.0445
  130MOL   C25941797   2.384   7.898   1.711 -0.2129 -0.2300 -0.1570
  130MOL   C26041798   2.247   7.925   1.704 -0.3279  0.6949 -0.3932
  130MOL   C26141799   2.180   7.974   1.817 -0.6161  0.2666  0.2873
  130MOL  Cl26241800   2.005   7.996   1.815  0.0360  0.1126 -0.0524
  130MOL   C26341801   2.248   8.003   1.936  0.3232  0.0058  0.9254
  130MOL   C26441802   2.381   7.973   1.944  0.3925  0.3221 -0.0993
  130MOL   C26541803   2.449   7.925   1.835 -0.0861 -0.1146 -0.1096
  130MOL   C26641804   2.578   7.895   1.536 -0.2726 -0.6371  0.3838
  130MOL   H26741805   2.383   7.819   1.511  0.6505  0.9171 -1.1566
  130MOL   H26841806   2.179   7.911   1.622  0.1448  0.3712 -0.7367
  130MOL   H26941807   2.201   8.049   2.022 -3.8511 -0.5970 -0.9345
  130MOL   H27041808   2.440   8.006   2.028  1.0615 -1.0533 -0.0230
  130MOL   H27141809   2.555   7.903   1.835 -0.0853 -0.1590 -1.4619
  130MOL   H27241810   2.656   7.890   1.612  1.4221  0.7603 -1.1893
  130MOL   H27341811   2.616   7.844   1.447 -0.6510  0.0883 -0.2040
  130MOL   C27441812   2.554   8.044   1.487  0.5538  1.0409 -0.3054
  130MOL   C27541813   2.578   8.147   1.598 -0.0705  0.2331  0.6313
  130MOL   C27641814   2.715   8.177   1.636 -0.8293  0.2897  0.3596
  130MOL   C27741815   2.738   8.263   1.749  0.3120 -0.2263 -0.4552
  130MOL  Cl27841816   2.895   8.271   1.809 -0.1536 -0.2157  0.1372
  130MOL   C27941817   2.631   8.318   1.821  0.4509 -0.0124 -0.2275
  130MOL   C28041818   2.498   8.301   1.767 -0.5672 -0.2059  0.0192
  130MOL   C28141819   2.470   8.219   1.655 -0.4424 -0.2992 -0.8287
  130MOL   C28241820   2.632   8.076   1.353 -0.6862 -0.1521  0.3214
  130MOL   H28341821   2.447   8.051   1.469  0.2749 -0.9517  0.4878
  130MOL   H28441822   2.787   8.108   1.594  1.0396  1.7717  1.0265
  130MOL   H28541823   2.655   8.386   1.901 -1.7270  0.1034  0.3436
  130MOL   H28641824   2.424   8.358   1.822  0.4169  0.3142  0.8149
  130MOL   H28741825   2.368   8.210   1.620  0.0693 -1.0108 -2.1533
  130MOL   H28841826   2.739   8.067   1.366 -0.6075  1.2791  0.6820
  130MOL   H28941827   2.598   8.000   1.282  1.1086  0.8410 -1.6630
  130MOL   C29041828   2.581   8.205   1.284  0.0158 -0.4968  0.1610
  130MOL   C29141829   2.695   8.265   1.200 -0.2152  0.5584 -0.4516
  130MOL   C29241830   2.697   8.263   1.060 -1.0996  0.3813  0.5798
  130MOL   C29341831   2.812   8.306   0.994  0.9246  0.1034  0.1506
  130MOL  Cl29441832   2.835   8.301   0.822  0.0427 -0.3497 -0.4909
  130MOL   C29541833   2.916   8.365   1.071 -0.5221  0.4988  0.0706
  130MOL   C29641834   2.910   8.374   1.211 -0.2413 -0.9180  0.2251
  130MOL   C29741835   2.801   8.320   1.276  0.3987  0.3447 -0.5488
  130MOL   C29841836   2.444   8.201   1.219  0.9241  0.2654 -0.0567
  130MOL   H29941837   2.561   8.276   1.364  0.0779 -1.0278  0.6483
  130MOL   H30041838   2.613   8.221   1.006 -1.1334 -1.2564  1.8769
  130MOL   H30141839   3.007   8.382   1.014  0.1163 -0.2813  0.8522
  130MOL   H30241840   2.988   8.421   1.270  0.3599  0.7163 -1.7949
  130MOL   H30341841   2.784   8.321   1.383 -2.9622  1.3230 -1.0189
  130MOL   H30441842   2.449   8.127   1.139 -2.3029 -0.5563  0.4282
  130MOL   H30541843   2.369   8.166   1.289 -1.2651  0.3023 -2.2948
  130MOL   C30641844   2.395   8.343   1.164 -0.1291 -0.5197  0.1295
  130MOL   C30741845   2.296   8.336   1.040  0.7132  0.1874 -0.6595
  130MOL   C30841846   2.329   8.376   0.909  0.9135 -0.9906 -0.7604
  130MOL   C30941847   2.239   8.358   0.806 -0.5081  0.0033 -0.2936
  130MOL  Cl31041848   2.273   8.426   0.652  0.1012 -0.3194 -0.1016
  130MOL   C31141849   2.115   8.295   0.829 -0.3478 -0.8041  0.0126
  130MOL   C31241850   2.084   8.239   0.952 -0.0507 -0.3038  0.1905
  130MOL   C31341851   2.172   8.264   1.058  0.3758 -0.0034 -0.0607
  130MOL   C31441852   2.337   0.012   1.268 -0.2876 -0.1135 -0.2610
  130MOL   H31541853   2.476   8.396   1.114  1.3279 -2.5756  0.2411
  130MOL   H31641854   2.422   8.426   0.884  0.0415  0.4100 -1.2795
  130MOL   H31741855   2.055   8.276   0.741  0.1603 -1.7968 -0.1319
  130MOL   H31841856   1.994   8.179   0.953  0.8552 -1.6822  0.4103
  130MOL   H31941857   2.145   8.215   1.150 -3.6914  0.4763 -0.9160
  130MOL   H32041858   2.245   8.422   1.319 -0.0336  0.8641  0.6985
  130MOL   H32141859   2.408   0.046   1.344  0.2193  0.6997 -1.0814
  130MOL   H32241860   2.314   0.107   1.219 -1.4946  1.4510  3.1914
  131MOL     C141861   1.947   4.217   3.337 -0.3072 -0.0265  0.5595
  131MOL     C241862   1.808   4.240   3.391 -1.0541  0.9921 -0.1775
  131MOL     C341863   1.710   4.127   3.397 -0.3374  0.7808  0.7598
  131MOL     C441864   1.580   4.147   3.451  0.1120  0.0149  0.1835
  131MOL    Cl541865   1.458   4.025   3.445  0.0188 -0.4149 -0.3586
  131MOL     C641866   1.545   4.274   3.506  0.6142  0.0609  0.1602
  131MOL     C741867   1.644   4.373   3.505 -0.4267  0.1153  0.5608
  131MOL     C841868   1.773   4.366   3.448  0.8388 -0.1396  0.3733
  131MOL     C941869   1.960   4.201   3.185 -0.1352  0.4984 -0.1375
  131MOL    H1041870   1.984   4.118   3.362  0.3329 -0.3085 -1.4223
  131MOL    H1141871   1.732   4.027   3.361  1.0941  0.6305  1.9947
  131MOL    H1241872   1.450   4.294   3.552  0.4735 -3.4274  1.5400
  131MOL    H1341873   1.622   4.462   3.562 -0.0787 -0.3078  1.3525
  131MOL    H1441874   1.839   4.451   3.446 -0.6211  1.0831  2.5777
  131MOL    H1541875   2.067   4.185   3.181 -0.4627 -1.6041 -0.9822
  131MOL    H1641876   1.922   4.104   3.152  0.4770 -0.1546  1.0469
  131MOL    H1741877   2.022   4.282   3.383  0.4533 -0.8605  0.5023
  131MOL    C1841878   1.912   4.306   3.094 -0.2454 -0.2127  0.6730
  131MOL    C1941879   1.997   4.435   3.111  0.5561  0.2691  0.2618
  131MOL    C2041880   1.934   4.559   3.144 -0.2001  1.0571  0.0947
  131MOL    C2141881   2.014   4.674   3.173 -0.4142 -0.2748 -0.5922
  131MOL   Cl2241882   1.935   4.821   3.232 -0.1757 -0.4609  0.1947
  131MOL    C2341883   2.156   4.661   3.164  0.6365  0.0519  0.5952
  131MOL    C2441884   2.218   4.543   3.120 -0.3910  0.0494  0.5858
  131MOL    C2541885   2.139   4.428   3.102 -1.1424  0.1886  0.3606
  131MOL    C2641886   1.910   4.256   2.948 -0.1836  0.1559 -0.0405
  131MOL    H2741887   1.807   4.319   3.121 -0.5946  1.2086 -1.2908
  131MOL    H2841888   1.828   4.561   3.164 -0.3011  0.4732 -0.3497
  131MOL    H2941889   2.224   4.737   3.201  2.7609 -0.9099 -1.2468
  131MOL    H3041890   2.326   4.534   3.122 -0.4079 -0.4037 -0.2729
  131MOL    H3141891   2.185   4.338   3.064 -0.1724  1.3358 -1.2765
  131MOL    H3241892   2.012   4.254   2.911 -0.7757  1.3985 -1.8205
  131MOL    H3341893   1.876   4.153   2.944  0.4616 -0.1280  1.5094
  131MOL    C3441894   1.808   4.322   2.849  1.1142 -0.0801  0.5215
  131MOL    C3541895   1.845   4.474   2.831 -0.1525 -0.2372 -0.6614
  131MOL    C3641896   1.756   4.581   2.848  0.9303  0.7666 -0.0121
  131MOL    C3741897   1.801   4.717   2.864  0.0949 -0.4097  0.1734
  131MOL   Cl3841898   1.687   4.836   2.916  0.2408 -0.1810 -0.1578
  131MOL    C3941899   1.932   4.747   2.829  0.8704 -0.5290 -0.2536
  131MOL    C4041900   2.020   4.642   2.795  0.1637 -0.1883  0.2790
  131MOL    C4141901   1.977   4.510   2.800  0.4732 -0.1459  0.1812
  131MOL    C4241902   1.804   4.245   2.711  0.9049 -0.9494 -0.2122
  131MOL    H4341903   1.711   4.318   2.898  1.6796  1.8467  1.8384
  131MOL    H4441904   1.657   4.547   2.876  0.8179  1.6448  0.6811
  131MOL    H4541905   1.967   4.849   2.836  0.8339 -0.5566  0.2963
  131MOL    H4641906   2.124   4.662   2.775 -0.1248  0.7512 -0.3009
  131MOL    H4741907   2.048   4.431   2.779  1.4496  0.6337  0.5282
  131MOL    H4841908   1.729   4.301   2.656 -0.8000 -3.4436 -0.5410
  131MOL    H4941909   1.900   4.244   2.659  0.1441 -2.5214 -1.6082
  131MOL    C5041910   1.772   4.096   2.715 -0.5027 -0.0792  0.0107
  131MOL    C5141911   1.656   4.073   2.806 -0.4948 -0.0728  0.3087
  131MOL    C5241912   1.529   4.140   2.779  0.0759  0.9824  0.3359
  131MOL    C5341913   1.417   4.106   2.853 -0.3037  0.0515  0.3835
  131MOL   Cl5441914   1.263   4.168   2.801  0.4607 -0.3994  0.0705
  131MOL    C5541915   1.428   4.016   2.963  0.2638 -0.4993 -0.7779
  131MOL    C5641916   1.553   3.960   2.991 -0.3581 -0.3931 -0.1820
  131MOL    C5741917   1.664   3.989   2.912  0.0339  0.1347  0.2305
  131MOL    C5841918   1.737   4.047   2.568  0.0793 -0.8839  0.3420
  131MOL    H5941919   1.852   4.036   2.757  0.4966  1.5491  0.4656
  131MOL    H6041920   1.527   4.191   2.684  0.7121  0.9003  0.2769
  131MOL    H6141921   1.343   3.982   3.020 -0.6985  2.3422 -0.4174
  131MOL    H6241922   1.563   3.887   3.071 -1.7487 -0.3213  0.0736
  131MOL    H6341923   1.754   3.935   2.937 -0.5867  0.3338  3.0783
  131MOL    H6441924   1.665   4.113   2.519  1.8025  1.8408  1.3497
  131MOL    H6541925   1.825   4.074   2.509 -0.8711  2.0708  0.2248
  131MOL    C6641926   1.706   3.895   2.556  0.6647  0.0029  0.4102
  131MOL    C6741927   1.556   3.865   2.581 -0.3518  0.1279  0.3115
  131MOL    C6841928   1.453   3.938   2.519 -0.1094 -0.3167  0.4051
  131MOL    C6941929   1.319   3.911   2.547 -0.4420 -0.1502  0.1712
  131MOL   Cl7041930   1.195   3.995   2.467 -0.3818 -0.3009  0.0496
  131MOL    C7141931   1.294   3.815   2.644  0.4631  0.7984  0.0428
  131MOL    C7241932   1.387   3.736   2.703 -0.2562  0.0892 -0.1421
  131MOL    C7341933   1.523   3.762   2.675  0.0697 -0.0145  0.0402
  131MOL    C7441934   1.759   3.842   2.421 -0.0507 -0.2756  0.2260
  131MOL    H7541935   1.760   3.840   2.633  1.7178  2.3904  1.4000
  131MOL    H7641936   1.481   4.021   2.456 -1.8577 -0.4976 -0.6399
  131MOL    H7741937   1.188   3.800   2.654  0.1903  0.8538 -2.4277
  131MOL    H7841938   1.374   3.663   2.781 -1.5763  0.0148 -0.4192
  131MOL    H7941939   1.590   3.696   2.729 -0.4591 -0.8634 -0.3249
  131MOL    H8041940   1.709   3.748   2.398 -0.3275 -1.0402  3.6574
  131MOL    H8141941   1.715   3.902   2.341 -0.8161 -0.5411  0.4431
  131MOL    C8241942   1.909   3.811   2.420 -0.3304 -0.0181 -0.8703
  131MOL    C8341943   1.941   3.701   2.519  0.9223  0.2515 -0.9250
  131MOL    C8441944   1.865   3.585   2.523 -0.0116 -0.1885  0.5140
  131MOL    C8541945   1.897   3.481   2.619  1.2199 -0.7496 -0.6266
  131MOL   Cl8641946   1.795   3.340   2.624  0.2370  0.1260  0.2980
  131MOL    C8741947   1.997   3.507   2.718  0.0278  0.1417 -0.4089
  131MOL    C8841948   2.067   3.626   2.716  0.0760  0.6731  0.0939
  131MOL    C8941949   2.043   3.722   2.619 -0.0043  0.1496 -0.0007
  131MOL    C9041950   1.971   3.786   2.280 -0.4493 -0.0130  0.1390
  131MOL    H9141951   1.961   3.896   2.465  1.2024  0.1601 -2.9152
  131MOL    H9241952   1.786   3.564   2.452 -0.4426  0.3395  0.8327
  131MOL    H9341953   2.016   3.432   2.794  2.1830  1.7951  0.7450
  131MOL    H9441954   2.140   3.652   2.792 -0.0173 -3.5311  1.7450
  131MOL    H9541955   2.098   3.814   2.608 -2.6591  1.8739  0.8273
  131MOL    H9641956   2.074   3.759   2.303 -0.9001 -2.1452 -0.2046
  131MOL    H9741957   1.924   3.698   2.237 -1.3796  0.1785  0.7470
  131MOL    C9841958   1.960   3.895   2.173 -0.0312 -0.0183 -0.2267
  131MOL    C9941959   1.990   4.027   2.239 -0.2300  0.2776 -0.6365
  131MOL   C10041960   2.125   4.064   2.273 -0.0930 -0.0602 -0.3032
  131MOL   C10141961   2.160   4.189   2.316  0.9530  0.6229 -0.3547
  131MOL  Cl10241962   2.329   4.214   2.350 -0.6131  0.0248  0.1975
  131MOL   C10341963   2.061   4.281   2.336  0.1472  0.1302  0.1417
  131MOL   C10441964   1.925   4.250   2.306 -0.3985 -0.2910 -0.2459
  131MOL   C10541965   1.889   4.129   2.250  0.1389 -0.0273  0.2321
  131MOL   C10641966   2.035   3.867   2.043  0.2741  0.0338 -0.4794
  131MOL   H10741967   1.862   3.912   2.128 -0.2260  3.9068  1.4906
  131MOL   H10841968   2.205   3.997   2.246  1.6710  1.9473 -0.1810
  131MOL   H10941969   2.101   4.372   2.378  1.0408 -1.2982  2.4548
  131MOL   H11041970   1.855   4.332   2.308  2.6548  2.5122 -3.0725
  131MOL   H11141971   1.786   4.119   2.222 -0.2067 -0.6184  1.6575
  131MOL   H11241972   2.010   3.947   1.974  1.6715 -1.2011 -2.4758
  131MOL   H11341973   2.140   3.874   2.073  0.1521  1.3184 -0.3192
  131MOL   C11441974   2.004   3.726   1.983  0.8275 -0.2811  0.4823
  131MOL   C11541975   1.859   3.710   1.932  0.0895 -0.1514 -0.3409
  131MOL   C11641976   1.776   3.609   1.982 -0.0855  0.3241  0.4438
  131MOL   C11741977   1.647   3.587   1.920  0.7186  0.0427  0.3502
  131MOL  Cl11841978   1.543   3.454   1.973  0.1528  0.0252 -0.1739
  131MOL   C11941979   1.601   3.671   1.816 -0.3558 -0.6653  0.1183
  131MOL   C12041980   1.686   3.766   1.768  0.0079 -0.1363  0.8323
  131MOL   C12141981   1.814   3.782   1.826 -0.3009 -0.8003 -0.5757
  131MOL   C12241982   2.106   3.684   1.871  0.6394 -0.3174  0.5629
  131MOL   H12341983   2.018   3.650   2.060  0.1157  0.1460  1.0383
  131MOL   H12441984   1.812   3.541   2.058 -1.7610 -0.0426  0.9150
  131MOL   H12541985   1.501   3.661   1.778 -0.1587  1.4793 -1.0774
  131MOL   H12641986   1.657   3.831   1.687  1.5164  0.1892  0.5326
  131MOL   H12741987   1.869   3.863   1.781 -0.3184 -0.7704 -0.5430
  131MOL   H12841988   2.116   3.767   1.801 -1.6344 -0.5388 -0.0688
  131MOL   H12941989   2.197   3.683   1.931 -1.2934  0.2371  3.6546
  131MOL   C13041990   2.083   3.544   1.803  0.0590 -0.0337  0.9720
  131MOL   C13141991   2.060   3.558   1.657  0.7961 -0.0408  0.2024
  131MOL   C13241992   1.962   3.478   1.600  0.4142 -0.0066 -0.3978
  131MOL   C13341993   1.937   3.500   1.463 -0.5086  0.6011 -0.2232
  131MOL  Cl13441994   1.828   3.391   1.390  0.1161 -0.3037  0.3185
  131MOL   C13541995   2.020   3.577   1.383 -0.3623  1.1255 -0.3521
  131MOL   C13641996   2.114   3.664   1.444  0.0589 -0.2787  0.3340
  131MOL   C13741997   2.137   3.648   1.580  0.0952 -0.1084 -0.3238
  131MOL   C13841998   2.211   3.459   1.832 -0.0956 -0.1867 -0.7187
  131MOL   H13941999   1.994   3.497   1.844 -2.3136  1.8134 -1.8239
  131MOL   H14042000   1.892   3.418   1.657 -1.7628  2.7133 -0.0842
  131MOL   H14142001   2.005   3.591   1.277  0.1035  1.2884 -0.3993
  131MOL   H14242002   2.165   3.745   1.394  3.2271 -1.8576  0.8591
  131MOL   H14342003   2.209   3.716   1.623 -1.0061  0.8546  0.0242
  131MOL   H14442004   2.208   3.376   1.762  0.0947 -0.0090 -0.9379
  131MOL   H14542005   2.301   3.516   1.809  0.6218 -0.2308  1.7627
  131MOL   C14642006   2.229   3.390   1.979 -0.0416 -0.2082 -0.7609
  131MOL   C14742007   2.110   3.301   2.019  0.0946 -0.1269  0.3547
  131MOL   C14842008   2.015   3.335   2.116 -0.3122  0.7760 -0.1529
  131MOL   C14942009   1.915   3.240   2.160 -0.0146  0.2846  0.2483
  131MOL  Cl15042010   1.804   3.266   2.290  0.2148 -0.4068 -0.2595
  131MOL   C15142011   1.914   3.116   2.088  0.4719 -0.3531  0.8029
  131MOL   C15242012   1.997   3.083   1.986 -0.0657  0.4232 -0.5440
  131MOL   C15342013   2.093   3.178   1.949  0.8280 -0.0751  0.3126
  131MOL   C15442014   2.358   3.302   1.989 -0.1769  0.4863  0.2396
  131MOL   H15542015   2.248   3.471   2.049 -0.0544 -1.9508  1.3048
  131MOL   H15642016   2.017   3.432   2.164  1.0120  1.0789 -0.8027
  131MOL   H15742017   1.850   3.037   2.125 -0.1286 -0.0780  0.3451
  131MOL   H15842018   1.985   2.983   1.945 -1.3273  0.6265 -0.6771
  131MOL   H15942019   2.160   3.151   1.869  0.6268 -0.4154  0.2600
  131MOL   H16042020   2.367   3.213   1.926 -0.7167  0.6348 -0.0535
  131MOL   H16142021   2.445   3.359   1.956  1.1638 -1.9783 -0.5807
  131MOL   C16242022   2.406   3.255   2.130  0.1964 -0.0007  0.5674
  131MOL   C16342023   2.409   3.374   2.225  0.1903 -0.9877 -0.3566
  131MOL   C16442024   2.507   3.477   2.207  0.5092  0.4080  0.0055
  131MOL   C16542025   2.504   3.597   2.283  0.8819  0.6910  0.0568
  131MOL  Cl16642026   2.619   3.725   2.264 -0.2114 -0.4113 -0.2580
  131MOL   C16742027   2.395   3.617   2.368  0.2717 -0.4165 -0.3557
  131MOL   C16842028   2.292   3.519   2.389  0.3036  0.0730 -0.9448
  131MOL   C16942029   2.298   3.402   2.314  0.0878 -0.2256  0.3979
  131MOL   C17042030   2.329   3.122   2.179  0.1900 -0.1729  0.0159
  131MOL   H17142031   2.510   3.233   2.102 -0.1126 -0.3735 -0.2968
  131MOL   H17242032   2.583   3.474   2.131  2.1841 -0.1973  1.6603
  131MOL   H17342033   2.394   3.706   2.429  2.0654 -0.9710  0.5029
  131MOL   H17442034   2.202   3.540   2.445  1.1608  2.3983 -0.3910
  131MOL   H17542035   2.215   3.334   2.326  0.8285 -1.0027  1.1508
  131MOL   H17642036   2.221   3.141   2.181  0.0457 -0.6008 -2.1573
  131MOL   H17742037   2.334   3.032   2.118 -0.0187  0.6514 -1.2482
  131MOL   C17842038   2.375   3.080   2.317  0.7264  0.8099  0.4237
  131MOL   C17942039   2.284   2.965   2.363 -0.1110 -0.6594 -0.2837
  131MOL   C18042040   2.308   2.829   2.350 -0.2498 -0.9329  0.1548
  131MOL   C18142041   2.219   2.732   2.398 -0.8645  0.0532 -0.4057
  131MOL  Cl18242042   2.252   2.564   2.390  0.3059  0.1321 -0.5550
  131MOL   C18342043   2.093   2.773   2.450  0.4470 -0.5309  0.3177
  131MOL   C18442044   2.057   2.904   2.446  0.7853 -0.2766  0.0289
  131MOL   C18542045   2.152   2.998   2.403 -0.7495 -0.1866 -0.1175
  131MOL   C18642046   2.524   3.044   2.329  0.0745  0.2057  0.5207
  131MOL   H18742047   2.357   3.166   2.382 -0.5174 -0.0686  1.2672
  131MOL   H18842048   2.403   2.793   2.314  0.5422  1.6251 -0.3949
  131MOL   H18942049   2.018   2.707   2.493  0.1340 -0.4081 -0.0372
  131MOL   H19042050   1.954   2.930   2.467  0.0425 -2.0251 -1.2924
  131MOL   H19142051   2.122   3.102   2.401 -0.3836 -0.0577  1.1468
  131MOL   H19242052   2.541   2.952   2.272 -0.5810  0.1256  0.4535
  131MOL   H19342053   2.586   3.115   2.274  0.5818  0.4117  1.3463
  131MOL   C19442054   2.591   3.028   2.469  0.5399  0.2535 -0.0305
  131MOL   C19542055   2.711   2.933   2.458  0.1773 -1.0835 -0.5141
  131MOL   C19642056   2.818   2.960   2.366  0.9734  0.4643 -0.0825
  131MOL   C19742057   2.931   2.876   2.367  0.0549  0.2731 -0.0513
  131MOL  Cl19842058   3.055   2.892   2.248  0.1651  0.1302 -0.1360
  131MOL   C19942059   2.948   2.770   2.455  0.0086  0.4745 -0.8593
  131MOL   C20042060   2.852   2.748   2.556  0.3593 -0.5409  0.1048
  131MOL   C20142061   2.731   2.828   2.550 -0.4605 -0.3860  0.8013
  131MOL   C20242062   2.633   3.169   2.520 -0.1594 -0.2006  0.4599
  131MOL   H20342063   2.510   2.988   2.530  1.2425  0.5456  1.1178
  131MOL   H20442064   2.815   3.048   2.305 -2.7790 -0.4077 -1.2526
  131MOL   H20542065   3.028   2.698   2.457  1.1819  1.8058  1.6397
  131MOL   H20642066   2.878   2.670   2.626  0.5974 -0.6492 -0.1030
  131MOL   H20742067   2.657   2.811   2.627 -1.0612 -1.9525 -0.1015
  131MOL   H20842068   2.709   3.203   2.449 -0.3091  0.1744  0.4788
  131MOL   H20942069   2.553   3.239   2.497  1.8985  2.1369  0.2745
  131MOL   C21042070   2.672   3.187   2.666  0.6174  0.2200 -0.6634
  131MOL   C21142071   2.779   3.290   2.693  1.1264 -0.5131  0.3226
  131MOL   C21242072   2.743   3.428   2.689  0.5900  0.5496  0.1510
  131MOL   C21342073   2.843   3.531   2.701  0.2697 -0.5504 -0.3418
  131MOL  Cl21442074   2.802   3.693   2.676 -0.1797  0.2711 -0.5163
  131MOL   C21542075   2.976   3.492   2.722  0.7324 -0.3180 -0.1979
  131MOL   C21642076   3.011   3.359   2.736  0.2966 -0.2562 -0.2623
  131MOL   C21742077   2.913   3.255   2.715 -0.8048 -0.5762  0.1777
  131MOL   C21842078   2.553   3.199   2.761  0.6294 -0.6337  0.0543
  131MOL   H21942079   2.725   3.099   2.702 -0.5048 -1.3060 -2.6747
  131MOL   H22042080   2.642   3.460   2.668  1.7435  3.7348 -0.7133
  131MOL   H22142081   3.052   3.569   2.728  1.5219 -1.0320 -0.9695
  131MOL   H22242082   3.117   3.336   2.740  0.5865  1.0373 -0.3223
  131MOL   H22342083   2.942   3.151   2.728 -0.2986 -0.7339 -2.1103
  131MOL   H22442084   2.494   3.289   2.748  1.0962 -0.5345 -1.5645
  131MOL   H22542085   2.486   3.121   2.723 -0.1500  0.7845 -1.5299
  131MOL   C22642086   2.585   3.182   2.916 -0.1019  0.1197 -0.5975
  131MOL   C22742087   2.490   3.259   3.000  0.2701  0.0338  0.2853
  131MOL   C22842088   2.525   3.353   3.095 -0.3409  0.2712  0.1612
  131MOL   C22942089   2.441   3.401   3.195 -0.2483  0.0780 -0.3031
  131MOL  Cl23042090   2.488   3.521   3.311 -0.2032  0.0352  0.1316
  131MOL   C23142091   2.303   3.369   3.183 -0.1512  0.3000 -0.1824
  131MOL   C23242092   2.261   3.278   3.083 -0.3908 -0.3846 -0.1340
  131MOL   C23342093   2.351   3.225   2.986 -0.0892  0.6251 -0.2979
  131MOL   C23442094   2.579   3.029   2.948  0.1681 -0.3137 -0.8513
  131MOL   H23542095   2.683   3.224   2.939 -0.1532  0.8565 -1.6785
  131MOL   H23642096   2.627   3.381   3.116 -0.8451  2.1863  0.1721
  131MOL   H23742097   2.242   3.420   3.256  1.1088 -0.2357  1.2752
  131MOL   H23842098   2.161   3.236   3.081 -0.6842  0.3147 -0.1823
  131MOL   H23942099   2.308   3.151   2.921 -0.0168  1.5342 -1.3867
  131MOL   H24042100   2.476   2.996   2.958 -0.2335  1.0416 -0.3984
  131MOL   H24142101   2.595   2.976   2.853 -1.0545 -1.3340 -0.4971
  131MOL   C24242102   2.672   2.980   3.068 -0.5489  0.0802 -0.1017
  131MOL   C24342103   2.776   2.887   3.006  0.1544  0.1258 -0.9065
  131MOL   C24442104   2.766   2.746   3.014 -1.2279 -0.1379  0.1098
  131MOL   C24542105   2.877   2.666   2.977  1.5839 -0.1070 -0.6947
  131MOL  Cl24642106   2.864   2.493   2.984 -0.0715  0.3412  0.0933
  131MOL   C24742107   2.986   2.723   2.910 -0.3393 -0.0314  0.1847
  131MOL   C24842108   2.991   2.862   2.897  0.1444 -0.0293 -0.4106
  131MOL   C24942109   2.891   2.946   2.958  0.0928  0.6585  0.2086
  131MOL   C25042110   2.721   3.080   3.175  0.2002 -0.3392 -0.5270
  131MOL   H25142111   2.618   2.904   3.125 -0.3471 -0.2192 -0.3066
  131MOL   H25242112   2.674   2.709   3.056 -1.4551  1.2786  0.8857
  131MOL   H25342113   3.068   2.669   2.865 -0.2006  1.3496 -1.2685
  131MOL   H25442114   3.079   2.910   2.857  1.6355 -0.3704  2.3868
  131MOL   H25542115   2.892   3.054   2.950 -1.6712  0.7048  0.3085
  131MOL   H25642116   2.775   3.161   3.125  1.1124 -1.0942 -0.7748
  131MOL   H25742117   2.637   3.132   3.221  0.4809 -0.4011  0.0616
  131MOL   C25842118   2.815   3.023   3.289 -0.6222 -0.3940 -0.7965
  131MOL   C25942119   2.890   3.137   3.357 -0.1718 -1.1700 -0.3837
  131MOL   C26042120   3.016   3.120   3.415 -0.0497 -0.6767 -0.2557
  131MOL   C26142121   3.078   3.230   3.476  0.0922 -0.1989 -0.6689
  131MOL  Cl26242122   3.233   3.203   3.541  0.0676 -0.1566  0.1115
  131MOL   C26342123   3.015   3.353   3.489  0.2934  0.4005 -0.4072
  131MOL   C26442124   2.887   3.365   3.431  0.9325 -0.0968 -0.5854
  131MOL   C26542125   2.828   3.260   3.365 -0.3501  0.0548 -0.7293
  131MOL   C26642126   2.749   2.926   3.389  0.7545 -1.0003  0.3236
  131MOL   H26742127   2.889   2.962   3.238  1.1958  0.8135  0.3148
  131MOL   H26842128   3.059   3.022   3.408  1.6794  0.0712 -0.5620
  131MOL   H26942129   3.061   3.439   3.535 -0.0035 -1.2349  3.1410
  131MOL   H27042130   2.845   3.464   3.434 -1.0510 -0.9321 -0.2523
  131MOL   H27142131   2.729   3.279   3.328  0.1102  0.6057 -1.6813
  131MOL   H27242132   2.713   2.847   3.322  0.5275 -0.8633  0.2824
  131MOL   H27342133   2.828   2.884   3.451  1.8666  1.9807  1.0370
  131MOL   C27442134   2.641   2.971   3.483 -0.9033  0.4447  0.2301
  131MOL   C27542135   2.505   2.969   3.425  0.2705 -0.4881  0.5760
  131MOL   C27642136   2.445   2.851   3.368 -0.3075 -0.0089  0.1446
  131MOL   C27742137   2.307   2.854   3.324 -0.5448  0.4845  0.3486
  131MOL  Cl27842138   2.238   2.714   3.256  0.5251  0.2239 -0.1753
  131MOL   C27942139   2.229   2.971   3.342  0.4615  0.2820  0.3384
  131MOL   C28042140   2.290   3.086   3.399  0.0490  0.3581 -0.0010
  131MOL   C28142141   2.423   3.085   3.442 -0.6035  0.0457 -0.3360
  131MOL   C28242142   2.640   2.881   3.605 -0.0912 -0.0685  0.1456
  131MOL   H28342143   2.660   3.076   3.506  3.0001  0.0506 -0.7312
  131MOL   H28442144   2.505   2.763   3.350 -1.6149 -0.9179  0.1829
  131MOL   H28542145   2.129   2.968   3.301  0.9943  1.5745 -1.1124
  131MOL   H28642146   2.229   3.173   3.415 -0.6976  0.0222 -0.9556
  131MOL   H28742147   2.458   3.177   3.486 -0.0853 -0.2081 -0.2103
  131MOL   H28842148   2.543   2.906   3.648 -0.4336  0.0314 -0.6608
  131MOL   H28942149   2.618   2.778   3.578 -0.0944  0.7712 -3.3677
  131MOL   C29042150   2.739   2.892   3.725  0.5844  0.3599 -0.3295
  131MOL   C29142151   2.790   3.036   3.747 -0.5846 -0.3829 -0.6645
  131MOL   C29242152   2.704   3.141   3.780  0.5543 -1.1161  0.0586
  131MOL   C29342153   2.754   3.265   3.821 -0.3548  0.4237  0.0270
  131MOL  Cl29442154   2.647   3.387   3.876  0.3203  0.2493 -0.5297
  131MOL   C29542155   2.894   3.289   3.817  0.1616  0.3315  0.2962
  131MOL   C29642156   2.983   3.183   3.779  0.1922 -0.1697 -0.2010
  131MOL   C29742157   2.929   3.058   3.743  0.4536  0.3643  0.4486
  131MOL   C29842158   2.678   2.835   3.858  0.1959  0.2346  0.3632
  131MOL   H29942159   2.826   2.831   3.702 -0.2215 -1.3963  1.1440
  131MOL   H30042160   2.597   3.127   3.784  0.7972 -2.7334  1.5399
  131MOL   H30142161   2.929   3.389   3.837 -0.9000  1.2632 -2.1823
  131MOL   H30242162   3.091   3.194   3.783  0.3300  0.7619 -4.2824
  131MOL   H30342163   2.999   2.984   3.708  0.5036  1.4018 -1.7457
  131MOL   H30442164   2.584   2.890   3.857 -0.2651 -0.5050  1.5366
  131MOL   H30542165   2.643   2.732   3.846  0.7454  0.0644  0.2149
  131MOL   C30642166   2.766   2.850   3.984  0.0364  0.0729  0.1760
  131MOL   C30742167   2.683   2.832   4.114 -0.0245 -0.1346 -0.2476
  131MOL   C30842168   2.709   2.914   4.230 -0.2608 -0.2195 -0.2812
  131MOL   C30942169   2.627   2.897   4.343  0.5136 -0.2291 -0.5924
  131MOL  Cl31042170   2.645   2.990   4.494 -0.2815 -0.1600 -0.0476
  131MOL   C31142171   2.521   2.809   4.342  0.5108  0.2660  0.9890
  131MOL   C31242172   2.506   2.728   4.230  0.5643 -0.0544  0.2763
  131MOL   C31342173   2.573   2.746   4.112  0.1026 -0.1647  0.2748
  131MOL   C31442174   2.882   2.751   3.986  0.2332  0.4871 -0.3555
  131MOL   H31542175   2.807   2.950   3.987 -0.7713  0.4895 -2.0603
  131MOL   H31642176   2.789   2.986   4.230 -1.2157  0.8840 -1.6035
  131MOL   H31742177   2.461   2.802   4.431  0.6974 -3.5197  0.8997
  131MOL   H31842178   2.440   2.643   4.230  2.0440 -1.2430 -0.0501
  131MOL   H31942179   2.557   2.683   4.025 -1.0521 -0.5481  0.7617
  131MOL   H32042180   2.936   2.768   3.894 -0.2084  0.1760 -0.6742
  131MOL   H32142181   2.938   2.765   4.079 -0.0776 -2.8010  0.3981
  131MOL   H32242182   2.841   2.650   3.987  1.4633 -0.0342  1.8175
  132MOL     C142183   1.223   3.988   6.879 -0.3225  0.0281  0.6064
  132MOL     C242184   1.172   3.857   6.837 -0.4419  0.2053 -0.1545
  132MOL     C342185   1.202   3.810   6.709 -0.6420 -0.0581 -0.0850
  132MOL     C442186   1.165   3.686   6.667  0.1856  0.4166 -0.0539
  132MOL    Cl542187   1.197   3.643   6.502 -0.3031  0.0898  0.3476
  132MOL     C642188   1.088   3.602   6.747  0.1643  0.1244 -0.5823
  132MOL     C742189   1.067   3.641   6.879  0.2020 -0.1712 -0.0305
  132MOL     C842190   1.108   3.770   6.927  0.9706  0.6633 -0.1167
  132MOL     C942191   1.163   4.050   7.006  0.0575 -0.6175 -0.1468
  132MOL    H1042192   1.205   4.054   6.794 -3.7659 -1.2309  0.2872
  132MOL    H1142193   1.244   3.874   6.634  0.2447 -0.5367 -0.0071
  132MOL    H1242194   1.050   3.507   6.713 -2.3362  0.9107 -0.0140
  132MOL    H1342195   1.015   3.583   6.953  1.6603 -0.9049  0.4374
  132MOL    H1442196   1.069   3.801   7.022  1.2217  0.0396  0.1913
  132MOL    H1542197   1.054   4.045   6.995 -0.0359  0.6147  0.1096
  132MOL    H1642198   1.181   3.984   7.091  1.9453 -0.1377 -0.1571
  132MOL    H1742199   1.330   3.976   6.893 -0.5251 -4.4321 -0.9543
  132MOL    C1842200   1.194   4.200   7.028 -0.4247 -0.3987  0.4057
  132MOL    C1942201   1.089   4.267   7.117  0.6933  0.5816  0.1484
  132MOL    C2042202   1.013   4.370   7.070 -0.6777  0.3546 -0.2904
  132MOL    C2142203   0.923   4.448   7.148  0.5307  0.4991 -0.1525
  132MOL   Cl2242204   0.840   4.571   7.065  0.1347 -0.3966 -0.0459
  132MOL    C2342205   0.901   4.410   7.282 -0.5512  0.3206 -0.3910
  132MOL    C2442206   0.983   4.305   7.337  0.1438 -0.6791  0.0165
  132MOL    C2542207   1.066   4.226   7.254 -0.1641  0.3185  0.5814
  132MOL    C2642208   1.333   4.211   7.089 -0.1086 -0.1821 -0.3795
  132MOL    H2742209   1.198   4.261   6.938  0.4081  0.6711  1.1513
  132MOL    H2842210   1.026   4.391   6.965 -1.5625  0.4577 -0.3890
  132MOL    H2942211   0.832   4.467   7.341  1.8218  1.6274  1.1892
  132MOL    H3042212   0.991   4.282   7.442  0.4114  4.2993  1.1886
  132MOL    H3142213   1.126   4.148   7.300  1.9637  0.5385 -1.7428
  132MOL    H3242214   1.328   4.267   7.182  1.1758 -0.7767  0.0565
  132MOL    H3342215   1.368   4.116   7.128 -1.7399 -1.0296 -0.9556
  132MOL    C3442216   1.446   4.270   6.995  0.3187  0.0165  0.1658
  132MOL    C3542217   1.417   4.409   6.933  0.1326  0.6509 -0.4641
  132MOL    C3642218   1.439   4.423   6.800  0.7101  0.3212 -0.1032
  132MOL    C3742219   1.406   4.546   6.737 -0.1824  0.2674 -0.4720
  132MOL   Cl3842220   1.440   4.578   6.574 -0.4668  0.2120 -0.1179
  132MOL    C3942221   1.354   4.654   6.816  0.1187 -0.0114 -0.4142
  132MOL    C4042222   1.319   4.633   6.949  0.8010  0.0925 -0.0340
  132MOL    C4142223   1.357   4.512   7.012 -0.6357 -0.3539  0.1279
  132MOL    C4242224   1.589   4.276   7.054 -0.4554 -0.1716 -0.3814
  132MOL    H4342225   1.438   4.196   6.915 -2.1789 -2.3137  2.4340
  132MOL    H4442226   1.489   4.347   6.742 -0.8166 -0.3072 -0.6217
  132MOL    H4542227   1.332   4.746   6.762 -1.7082  0.8043  1.6322
  132MOL    H4642228   1.278   4.715   7.005  1.6508 -0.3642  1.2680
  132MOL    H4742229   1.339   4.480   7.114 -0.8680  0.6700  0.4200
  132MOL    H4842230   1.650   4.333   6.984 -0.5151  1.7858  1.1006
  132MOL    H4942231   1.596   4.332   7.148  0.5947 -0.3319 -0.3630
  132MOL    C5042232   1.644   4.133   7.088 -0.3107 -0.0123 -0.1466
  132MOL    C5142233   1.619   4.034   6.977 -0.2133  0.4853 -0.5493
  132MOL    C5242234   1.574   3.901   7.004  0.2137  0.4678 -0.3014
  132MOL    C5342235   1.527   3.813   6.899  0.1203  0.0191  0.2094
  132MOL   Cl5442236   1.459   3.661   6.947  0.0724  0.4862  0.2978
  132MOL    C5542237   1.545   3.851   6.764  0.6874  0.2111 -0.0360
  132MOL    C5642238   1.595   3.981   6.736 -0.3735  1.0924 -0.7624
  132MOL    C5742239   1.631   4.067   6.841 -0.0988 -0.4083  0.1939
  132MOL    C5842240   1.798   4.142   7.111 -0.6588 -0.1791  0.1938
  132MOL    H5942241   1.599   4.105   7.183  0.8844 -1.8824 -0.1237
  132MOL    H6042242   1.567   3.865   7.106  1.6917 -0.3137 -0.4645
  132MOL    H6142243   1.503   3.798   6.680  0.1403  0.3553  0.1440
  132MOL    H6242244   1.592   4.014   6.634  1.5266 -1.6841 -1.7773
  132MOL    H6342245   1.666   4.167   6.821  3.5365 -1.3637  1.5067
  132MOL    H6442246   1.859   4.171   7.025  1.0572 -0.5442  1.2838
  132MOL    H6542247   1.805   4.235   7.167  0.2364  1.0575 -1.8805
  132MOL    C6642248   1.863   4.027   7.196  0.3647  0.0083  0.2346
  132MOL    C6742249   1.955   3.934   7.111 -0.2517 -0.7317 -0.4562
  132MOL    C6842250   1.922   3.797   7.096  0.6058  0.1875 -0.6912
  132MOL    C6942251   1.996   3.704   7.017 -0.5243 -0.0632  0.3745
  132MOL   Cl7042252   1.963   3.533   7.000  0.2126  0.2035 -0.1131
  132MOL    C7142253   2.114   3.754   6.960  0.2980  0.6494 -0.1273
  132MOL    C7242254   2.148   3.888   6.970  0.4286 -0.2429 -0.3494
  132MOL    C7342255   2.071   3.981   7.048  0.2550 -0.2046  0.0818
  132MOL    C7442256   1.952   4.079   7.315  0.1005  0.1729  0.8807
  132MOL    H7542257   1.786   3.962   7.238  0.4127 -0.9207 -1.1082
  132MOL    H7642258   1.835   3.756   7.146  1.5192  1.2115  1.7761
  132MOL    H7742259   2.174   3.692   6.894 -1.7586  1.0467 -2.4400
  132MOL    H7842260   2.239   3.915   6.918  0.8785  2.1066  1.5690
  132MOL    H7942261   2.113   4.080   7.044  0.8068 -0.4101  0.7884
  132MOL    H8042262   2.051   4.036   7.326 -0.5275 -1.4976  0.1843
  132MOL    H8142263   1.979   4.181   7.288  0.0949 -0.3114 -1.0563
  132MOL    C8242264   1.881   4.079   7.455  0.2077  0.4154 -0.8181
  132MOL    C8342265   1.984   4.117   7.558  0.1241 -0.2017 -0.3818
  132MOL    C8442266   2.052   4.239   7.543 -0.0247 -0.0408 -0.6876
  132MOL    C8542267   2.137   4.277   7.640 -0.5321  0.3325 -0.8752
  132MOL   Cl8642268   2.230   4.424   7.616 -0.2997 -0.1479 -0.2708
  132MOL    C8742269   2.175   4.190   7.741 -0.5850  0.2451  0.3152
  132MOL    C8842270   2.103   4.073   7.765  0.0409 -0.7069  0.8530
  132MOL    C8942271   2.006   4.033   7.669  0.8990 -0.1272  0.1565
  132MOL    C9042272   1.757   4.173   7.462  0.4000 -0.4685 -0.8914
  132MOL    H9142273   1.851   3.976   7.469  1.8658  0.2219  1.5035
  132MOL    H9242274   2.032   4.309   7.463 -1.1502  2.4215  1.6759
  132MOL    H9342275   2.246   4.219   7.817  0.4636  0.1339 -0.6080
  132MOL    H9442276   2.125   4.003   7.844 -0.7938 -1.5697  0.3333
  132MOL    H9542277   1.959   3.936   7.671 -0.8381  0.7017  0.3104
  132MOL    H9642278   1.793   4.275   7.480  0.4417 -0.3340 -1.7193
  132MOL    H9742279   1.710   4.174   7.364 -0.5169 -1.0718 -0.4585
  132MOL    C9842280   1.654   4.158   7.576  0.4783  0.6715 -0.2067
  132MOL    C9942281   1.547   4.271   7.567  0.1523  0.1592  0.3411
  132MOL   C10042282   1.517   4.349   7.684  0.7656 -0.0621  0.2995
  132MOL   C10142283   1.412   4.446   7.674 -0.5539 -0.0596 -0.4993
  132MOL  Cl10242284   1.361   4.521   7.820 -0.1937 -0.4150 -0.3110
  132MOL   C10342285   1.345   4.469   7.552 -0.5278 -0.1415 -0.0898
  132MOL   C10442286   1.380   4.392   7.442  1.0287  0.2142  0.7491
  132MOL   C10542287   1.477   4.291   7.448 -0.3444  0.2816  0.3797
  132MOL   C10642288   1.590   4.015   7.565 -0.5140  0.1045  0.2278
  132MOL   H10742289   1.701   4.151   7.674  1.2951 -2.0138 -0.7466
  132MOL   H10842290   1.561   4.315   7.776 -0.6447 -0.4814  0.8334
  132MOL   H10942291   1.269   4.545   7.544 -1.7773 -1.4253 -0.7665
  132MOL   H11042292   1.323   4.404   7.351  2.2005  1.4422  0.1685
  132MOL   H11142293   1.486   4.227   7.362  0.2124  2.6260 -1.3466
  132MOL   H11242294   1.590   3.997   7.457  0.5391 -0.8256  0.3758
  132MOL   H11342295   1.665   3.948   7.606  0.4158  0.3680 -0.9888
  132MOL   C11442296   1.449   3.994   7.623 -0.5387 -0.1570  0.1549
  132MOL   C11542297   1.403   3.858   7.572 -0.1295 -0.3900 -0.0356
  132MOL   C11642298   1.455   3.737   7.629  0.7094 -0.3029 -0.3330
  132MOL   C11742299   1.409   3.614   7.582  0.6330 -0.0868 -0.3570
  132MOL  Cl11842300   1.455   3.464   7.646 -0.2473 -0.3085 -0.1007
  132MOL   C11942301   1.311   3.614   7.481  0.2182 -0.6953 -0.1509
  132MOL   C12042302   1.263   3.731   7.417  0.5164  0.3366 -0.3082
  132MOL   C12142303   1.310   3.852   7.465 -0.0733 -0.0823 -0.7009
  132MOL   C12242304   1.438   4.010   7.777 -0.1797 -0.7023  0.3945
  132MOL   H12342305   1.380   4.063   7.576  1.3530  1.0604 -0.8932
  132MOL   H12442306   1.521   3.753   7.713 -0.2199  0.8605  0.1949
  132MOL   H12542307   1.272   3.522   7.441  1.5187 -1.3809  0.1514
  132MOL   H12642308   1.202   3.723   7.328  1.8501 -1.5408 -1.0815
  132MOL   H12742309   1.286   3.937   7.402 -0.0718  0.6547  0.2747
  132MOL   H12842310   1.491   3.931   7.832  1.5166 -0.6568 -1.1341
  132MOL   H12942311   1.509   4.090   7.797 -1.1184  0.1408  0.3901
  132MOL   C13042312   1.296   4.045   7.837  0.1348 -0.1586  0.5023
  132MOL   C13142313   1.199   3.928   7.828 -0.7923 -0.5530 -0.3238
  132MOL   C13242314   1.234   3.803   7.877 -0.3813  0.3978 -0.5018
  132MOL   C13342315   1.146   3.692   7.866 -0.2849 -0.1601 -0.2783
  132MOL  Cl13442316   1.194   3.543   7.929  0.1593 -0.1150  0.2911
  132MOL   C13542317   1.021   3.708   7.800 -0.6411  0.7721 -0.1953
  132MOL   C13642318   0.986   3.838   7.761 -0.5478 -0.0774  0.3213
  132MOL   C13742319   1.071   3.949   7.771  0.7310  0.2608 -0.4912
  132MOL   C13842320   1.326   4.093   7.981  0.0760 -0.7881  0.7709
  132MOL   H13942321   1.256   4.118   7.767 -1.1733  0.4748  1.8813
  132MOL   H14042322   1.332   3.797   7.922 -0.0759 -0.9874 -1.3170
  132MOL   H14142323   0.945   3.631   7.794 -1.2951  1.4696 -0.8041
  132MOL   H14242324   0.889   3.864   7.722  0.0745  3.6048  1.0220
  132MOL   H14342325   1.030   4.045   7.743  0.5184  0.2669 -0.1600
  132MOL   H14442326   1.370   4.013   8.040  0.1969  0.4542  2.4024
  132MOL   H14542327   1.404   4.167   7.960 -0.3038 -0.6695 -0.2870
  132MOL   C14642328   1.195   4.154   8.052 -0.7725  0.2181  0.6896
  132MOL   C14742329   1.102   4.040   8.099 -0.3967 -0.4663  0.4491
  132MOL   C14842330   0.968   4.027   8.055  0.3700 -0.0915  0.5054
  132MOL   C14942331   0.891   3.924   8.111 -0.0341 -0.4740  0.1794
  132MOL  Cl15042332   0.729   3.895   8.041  0.1912  0.0491 -0.1058
  132MOL   C15142333   0.944   3.830   8.205 -0.2899  0.0197  0.1144
  132MOL   C15242334   1.081   3.841   8.237  0.4323  0.4938 -0.2607
  132MOL   C15342335   1.156   3.946   8.188  0.0074 -0.2547  0.7034
  132MOL   C15442336   1.226   4.262   8.166  0.4729  0.4846  0.7267
  132MOL   H15542337   1.134   4.202   7.976 -0.1877 -0.3811 -0.1607
  132MOL   H15642338   0.925   4.101   7.990  0.3794 -0.8749 -0.4045
  132MOL   H15742339   0.883   3.747   8.238  1.0223 -1.3834 -0.9247
  132MOL   H15842340   1.131   3.772   8.303  1.1600  0.9493 -0.3351
  132MOL   H15942341   1.258   3.959   8.222  0.6316 -1.3580 -0.7109
  132MOL   H16042342   1.235   4.212   8.262  0.0816  0.2019  0.6153
  132MOL   H16142343   1.322   4.308   8.140 -0.3469  1.5755 -0.4515
  132MOL   C16242344   1.113   4.361   8.167  0.7702 -0.5549  0.7711
  132MOL   C16342345   1.111   4.438   8.300  0.2638  0.1713 -0.5111
  132MOL   C16442346   1.215   4.529   8.324 -0.2228  0.0391  0.2886
  132MOL   C16542347   1.214   4.614   0.003  0.1171  0.6733  0.3533
  132MOL  Cl16642348   1.346   4.728   0.020  0.0262  0.2679 -0.0742
  132MOL   C16742349   1.120   4.596   0.097 -0.3976  1.0741  0.3019
  132MOL   C16842350   1.018   4.496   0.087  0.2076  0.2211  0.2282
  132MOL   C16942351   1.014   4.417   8.401  0.1682 -0.4863  0.9190
  132MOL   C17042352   1.114   4.451   8.038  0.0164 -0.4621 -0.3402
  132MOL   H17142353   1.027   4.295   8.158  1.4847 -1.1950 -1.6410
  132MOL   H17242354   1.295   4.533   8.253  1.3967  1.1663  2.1105
  132MOL   H17342355   1.124   4.636   0.197  0.0225  1.1076  0.2710
  132MOL   H17442356   0.952   4.473   0.170  0.4972 -0.3843  0.2906
  132MOL   H17542357   0.943   4.336   8.389  0.6244 -0.8999  1.0033
  132MOL   H17642358   1.177   4.538   8.057 -2.3961  1.1695  0.4479
  132MOL   H17742359   1.172   4.400   7.961 -0.0831 -1.3773  0.1770
  132MOL   C17842360   0.977   4.502   7.979 -0.1191 -0.1460 -0.8684
  132MOL   C17942361   0.882   4.390   7.930 -1.2447 -0.3405  0.5095
  132MOL   C18042362   0.910   4.325   7.806  0.4369  0.2571 -0.6261
  132MOL   C18142363   0.815   4.229   7.768 -0.3235  0.1725 -0.2606
  132MOL  Cl18242364   0.832   4.159   7.608  0.0749 -0.1072 -0.0148
  132MOL   C18342365   0.704   4.190   7.847  0.3931  0.0496  0.0155
  132MOL   C18442366   0.686   4.251   7.966  0.2678  0.3127  0.1030
  132MOL   C18542367   0.776   4.350   8.010  0.8327 -0.3120  0.1817
  132MOL   C18642368   0.933   4.602   8.084  0.3222 -0.5616 -0.2590
  132MOL   H18742369   0.990   4.552   7.883 -0.1263  0.2551 -0.6583
  132MOL   H18842370   0.994   4.352   7.744 -0.1909  0.1172 -1.5453
  132MOL   H18942371   0.641   4.108   7.817 -1.3398  1.1693  0.5495
  132MOL   H19042372   0.595   4.219   8.015  0.5842 -0.7524  0.0151
  132MOL   H19142373   0.763   4.379   8.114 -0.5136 -1.0782  0.2404
  132MOL   H19242374   0.924   4.550   8.180  0.2021 -0.2989 -0.1279
  132MOL   H19342375   1.011   4.674   8.108 -0.3765  0.3382 -0.6621
  132MOL   C19442376   0.794   4.669   8.053  0.0063 -0.5200  0.3389
  132MOL   C19542377   0.710   4.685   8.177 -0.1215  0.9403 -0.3082
  132MOL   C19642378   0.764   4.714   8.305 -0.0149  0.2473  0.0648
  132MOL   C19742379   0.686   4.721   8.422 -0.0257 -0.1451 -0.1486
  132MOL  Cl19842380   0.759   4.743   0.135  0.3293  0.0563  0.2710
  132MOL   C19942381   0.552   4.684   8.415 -0.3459  0.2212 -0.2580
  132MOL   C20042382   0.496   4.651   8.294  0.1193 -0.1998  0.0519
  132MOL   C20142383   0.574   4.656   8.176 -0.0826  0.3030 -0.0580
  132MOL   C20242384   0.804   4.797   7.971  0.2650  0.6871  0.0706
  132MOL   H20342385   0.732   4.602   7.993 -0.4033  0.0688  0.0936
  132MOL   H20442386   0.871   4.715   8.319  0.0026  0.1539 -0.0616
  132MOL   H20542387   0.504   4.670   0.075 -1.2169 -0.9473 -0.8585
  132MOL   H20642388   0.393   4.617   8.289 -0.6979  1.8470  1.9834
  132MOL   H20742389   0.512   4.624   8.094 -0.1320 -0.9913  0.4608
  132MOL   H20842390   0.840   4.772   7.872  0.1178 -0.3530  0.2650
  132MOL   H20942391   0.701   4.830   7.958 -1.0720 -3.4779 -0.8370
  132MOL   C21042392   0.903   4.907   8.034 -0.0649  0.4770 -0.1645
  132MOL   C21142393   1.051   4.900   7.981 -0.5620 -0.3589  0.2584
  132MOL   C21242394   1.083   4.903   7.842  0.8181 -0.6413  0.3316
  132MOL   C21342395   1.208   4.865   7.793 -0.4352 -0.8180 -0.6106
  132MOL  Cl21442396   1.221   4.839   7.619  0.1475 -0.0858 -0.2134
  132MOL   C21542397   1.312   4.840   7.888  0.0705 -0.8905 -0.4468
  132MOL   C21642398   1.287   4.855   8.026 -0.5850  0.0566 -0.5773
  132MOL   C21742399   1.158   4.884   8.074 -0.2864  0.3496 -0.0605
  132MOL   C21842400   0.840   5.046   8.025 -0.3258  0.1633  0.6245
  132MOL   H21942401   0.897   4.889   8.142 -0.0639 -3.1456 -0.7407
  132MOL   H22042402   1.000   4.934   7.781  1.5176  1.7660  0.5451
  132MOL   H22142403   1.405   4.797   7.854  0.9250 -0.5043  1.3979
  132MOL   H22242404   1.360   4.840   8.105 -1.3607 -2.3313 -0.2471
  132MOL   H22342405   1.153   4.891   8.182 -0.2650  0.7495 -0.0849
  132MOL   H22442406   0.883   5.094   7.937  0.0504  1.9864  1.7828
  132MOL   H22542407   0.733   5.051   8.008 -0.4812 -1.7313  0.8520
  132MOL   C22642408   0.892   5.144   8.127  0.4230 -0.0136  0.4944
  132MOL   C22742409   0.895   5.287   8.076  0.0062  0.5437  0.0736
  132MOL   C22842410   1.014   5.354   8.090 -0.1884  0.1030 -0.4753
  132MOL   C22942411   1.025   5.493   8.054 -0.7459 -0.9399  0.1942
  132MOL  Cl23042412   1.175   5.577   8.081 -0.2644  0.4419 -0.1692
  132MOL   C23142413   0.917   5.562   8.000  0.2716 -0.2868 -0.0684
  132MOL   C23242414   0.805   5.486   7.969 -0.0505  0.0529 -0.0064
  132MOL   C23342415   0.786   5.349   8.007  0.7639 -0.5240  0.2366
  132MOL   C23442416   0.796   5.123   8.253 -0.9511 -0.4603  0.0941
  132MOL   H23542417   0.993   5.117   8.161  0.5480  0.7540  0.7410
  132MOL   H23642418   1.098   5.312   8.142  0.5545  1.2497 -0.7446
  132MOL   H23742419   0.919   5.670   7.987 -0.9427  0.0406  2.1997
  132MOL   H23842420   0.724   5.549   7.934  0.0512  0.9294  1.3192
  132MOL   H23942421   0.687   5.307   7.996 -0.0292  1.1900  0.7152
  132MOL   H24042422   0.693   5.114   8.218 -0.3654 -1.2903 -1.4600
  132MOL   H24142423   0.828   5.032   8.304  4.0923  0.6240 -0.8738
  132MOL   C24242424   0.797   5.231   8.362 -0.4548 -0.3656  0.4021
  132MOL   C24342425   0.691   5.203   0.033  0.1570  0.0594 -0.0496
  132MOL   C24442426   0.560   5.247   0.011 -0.2219  0.7432  0.4023
  132MOL   C24542427   0.456   5.221   0.104  0.3325  0.5743 -0.0921
  132MOL  Cl24642428   0.295   5.278   0.083  0.1017 -0.1281 -0.2561
  132MOL   C24742429   0.482   5.145   0.221  0.1444  0.3004  0.2147
  132MOL   C24842430   0.613   5.096   0.246  0.5085 -0.1406 -0.4737
  132MOL   C24942431   0.717   5.132   0.153 -0.0665 -0.1804 -0.2260
  132MOL   C25042432   0.947   5.245   8.419 -0.3123 -0.7124  0.3746
  132MOL   H25142433   0.767   5.328   8.322 -1.5012 -0.4831  0.8765
  132MOL   H25242434   0.531   5.313   8.366 -1.7682  1.0731  1.2044
  132MOL   H25342435   0.396   5.115   0.278  1.1047 -2.0575  0.5050
  132MOL   H25442436   0.643   5.046   0.337 -0.8167 -0.2892 -0.1032
  132MOL   H25542437   0.817   5.095   0.171 -0.8967 -1.3851  1.9476
  132MOL   H25642438   0.970   5.158   0.045  0.8360 -1.0010 -0.4447
  132MOL   H25742439   1.027   5.237   8.346  0.5772  0.1717  1.2380
  132MOL   C25842440   0.955   5.369   0.071  0.2203 -0.0039 -0.1001
  132MOL   C25942441   1.070   5.363   0.169  0.3398  0.2034  0.9812
  132MOL   C26042442   1.206   5.387   0.124 -0.0265  0.8857 -0.0623
  132MOL   C26142443   1.308   5.394   0.222 -0.4965 -0.1217  0.5498
  132MOL  Cl26242444   1.470   5.443   0.175  0.2927 -0.1397 -0.2662
  132MOL   C26342445   1.273   5.384   0.358 -0.5575  1.0427 -0.2128
  132MOL   C26442446   1.143   5.357   0.397 -0.2401  0.1270 -0.0383
  132MOL   C26542447   1.045   5.335   0.302 -0.4405  0.6134 -0.4207
  132MOL   C26642448   0.969   5.502   8.420 -0.2192  0.9377 -0.0299
  132MOL   H26742449   0.866   5.366   0.133 -0.1895 -0.6660 -0.7165
  132MOL   H26842450   1.232   5.401   0.020  1.6014  0.4235  0.2626
  132MOL   H26942451   1.351   5.391   0.433 -2.0145 -1.5753  1.6523
  132MOL   H27042452   1.114   5.339   0.500  1.0410  3.0952  0.8960
  132MOL   H27142453   0.944   5.315   0.335  0.1338 -0.1753  0.8995
  132MOL   H27242454   1.060   5.494   8.360 -1.1025 -0.5598 -1.1950
  132MOL   H27342455   0.898   5.494   8.338  0.3765  1.2050 -0.5801
  132MOL   C27442456   0.966   5.640   0.055 -0.8308 -0.1216 -0.2189
  132MOL   C27542457   1.050   5.747   8.417 -0.1542  0.1824 -0.8831
  132MOL   C27642458   1.015   5.803   8.296  0.2657 -0.1747  0.6825
  132MOL   C27742459   1.110   5.886   8.230  0.0503 -0.2823  0.5642
  132MOL  Cl27842460   1.067   5.944   8.072 -0.0254  0.1888 -0.3763
  132MOL   C27942461   1.235   5.927   8.289 -0.8479 -0.2829 -0.0492
  132MOL   C28042462   1.260   5.884   8.420 -0.0942 -0.5864 -0.6091
  132MOL   C28142463   1.166   5.795   0.042 -0.2010  0.3869  0.1067
  132MOL   C28242464   0.827   5.687   0.097 -0.1935  0.5311  0.6039
  132MOL   H28342465   1.023   5.621   0.146 -1.3585 -0.3005  0.0750
  132MOL   H28442466   0.928   5.765   8.245  1.7040 -0.7486 -1.4434
  132MOL   H28542467   1.298   5.998   8.238 -1.3670  0.7503  0.7396
  132MOL   H28642468   1.340   5.914   0.050  0.3824 -0.9054 -1.0507
  132MOL   H28742469   1.199   5.764   0.141  1.0772 -2.2914 -1.1006
  132MOL   H28842470   0.771   5.703   0.005 -1.2016 -0.2474  1.0760
  132MOL   H28942471   0.780   5.610   0.157  2.0272  1.1286  3.2002
  132MOL   C29042472   0.825   5.819   0.177  0.0327 -0.9039 -0.6813
  132MOL   C29142473   0.810   5.942   0.082  0.3383  0.9558 -0.1725
  132MOL   C29242474   0.911   6.047   0.080  0.2435 -0.2691 -0.2949
  132MOL   C29342475   0.898   6.159   0.003 -0.0854  0.5744  0.2563
  132MOL  Cl29442476   1.016   6.281   0.004 -0.2283 -0.0579 -0.2335
  132MOL   C29542477   0.787   6.163   8.346  1.1718 -0.1341  0.3678
  132MOL   C29642478   0.675   6.075   8.364 -0.3455 -0.0933  0.0830
  132MOL   C29742479   0.691   5.961   0.007  0.0729 -0.1984  0.6031
  132MOL   C29842480   0.712   5.829   0.286 -0.0507 -0.0291  0.2271
  132MOL   H29942481   0.919   5.823   0.232 -0.7891 -1.1687  0.7578
  132MOL   H30042482   0.995   6.044   0.148  1.8816  2.4041 -2.1109
  132MOL   H30142483   0.773   6.249   8.282 -0.4087  1.8436  3.2689
  132MOL   H30242484   0.580   6.091   8.316 -1.2025  0.3234  1.8473
  132MOL   H30342485   0.608   5.893   0.011  1.2358 -1.7356 -0.6800
  132MOL   H30442486   0.685   5.933   0.307 -3.4570 -0.5123 -1.4361
  132MOL   H30542487   0.620   5.790   0.242 -0.5880  1.2919  0.1449
  132MOL   C30642488   0.733   5.764   0.425  0.5007 -0.8574 -0.1927
  132MOL   C30742489   0.873   5.799   0.478  0.1215  0.1178 -0.1694
  132MOL   C30842490   0.877   5.925   0.543  0.7306 -0.5364  0.0530
  132MOL   C30942491   0.996   5.956   0.610  0.2550 -0.5534 -0.2798
  132MOL  Cl31042492   0.994   6.090   0.723 -0.0186 -0.5616 -0.3532
  132MOL   C31142493   1.109   5.878   0.594 -0.4852  0.3504  0.4611
  132MOL   C31242494   1.113   5.764   0.514  0.3046 -0.0724  0.7067
  132MOL   C31342495   0.995   5.725   0.454 -0.2226  0.0450  0.4491
  132MOL   C31442496   0.614   5.785   0.520 -0.2046 -0.1091 -0.2447
  132MOL   H31542497   0.746   5.658   0.405  1.0366 -0.8604  0.1692
  132MOL   H31642498   0.793   5.991   0.560  1.4811  0.3570  0.3366
  132MOL   H31742499   1.195   5.899   0.656  0.7007 -3.5713  0.2595
  132MOL   H31842500   1.205   5.710   0.495  0.8443  1.2164 -0.5104
  132MOL   H31942501   0.999   5.638   0.390 -1.8253 -0.2567  0.7235
  132MOL   H32042502   0.596   5.891   0.538  0.2404  0.1526 -1.3155
  132MOL   H32142503   0.526   5.747   0.469  0.5927 -0.9640 -0.9926
  132MOL   H32242504   0.624   5.736   0.617 -1.2861 -0.9672 -0.5484
  133MOL     C142505   1.303   6.846   4.675  0.0569  0.4659 -0.5274
  133MOL     C242506   1.451   6.874   4.648  0.2809 -0.9447 -0.5429
  133MOL     C342507   1.522   6.979   4.713 -0.2753  0.3595  0.2608
  133MOL     C442508   1.659   6.988   4.683 -0.7804 -0.0509 -0.3531
  133MOL    Cl542509   1.752   7.096   4.772 -0.1183 -0.4108 -0.3791
  133MOL     C642510   1.716   6.914   4.576  0.4450  0.3092  0.4012
  133MOL     C742511   1.643   6.818   4.509 -0.1473  0.1509 -0.1177
  133MOL     C842512   1.509   6.797   4.545 -1.1160  0.0230 -0.3812
  133MOL     C942513   1.213   6.928   4.579 -0.0793  0.5299  0.3907
  133MOL    H1042514   1.287   6.857   4.783 -0.0703 -1.1943 -0.3635
  133MOL    H1142515   1.480   7.032   4.797  0.6973  0.8091  0.4741
  133MOL    H1242516   1.819   6.930   4.547  0.4745  0.2632  0.4813
  133MOL    H1342517   1.694   6.758   4.435  1.1270 -0.0446  0.9057
  133MOL    H1442518   1.449   6.717   4.504  1.6669 -2.1493 -0.3597
  133MOL    H1542519   1.119   6.946   4.631 -1.3929 -0.0638 -1.7490
  133MOL    H1642520   1.243   7.033   4.575  0.6877  0.3267  0.6688
  133MOL    H1742521   1.296   6.738   4.669  0.3813  0.4918 -1.3936
  133MOL    C1842522   1.203   6.857   4.441  0.1791 -0.3901 -1.0365
  133MOL    C1942523   1.151   6.712   4.450  0.2443 -0.2413  0.6664
  133MOL    C2042524   1.218   6.602   4.391  0.2921  0.0836 -0.4678
  133MOL    C2142525   1.163   6.475   4.396 -0.3995 -0.3813 -0.2156
  133MOL   Cl2242526   1.230   6.338   4.328 -0.1048 -0.1535  0.1117
  133MOL    C2342527   1.044   6.452   4.472 -0.6666 -0.3677  0.1824
  133MOL    C2442528   0.981   6.557   4.539  0.1519 -0.7562  0.4557
  133MOL    C2542529   1.032   6.687   4.522  0.1061  0.1098  0.7904
  133MOL    C2642530   1.118   6.933   4.341 -0.2240  0.8566 -0.8924
  133MOL    H2742531   1.303   6.849   4.399  0.5674 -0.0571 -0.2055
  133MOL    H2842532   1.315   6.608   4.343  0.3552  3.6333  0.0001
  133MOL    H2942533   1.001   6.354   4.482  0.6289 -1.2126 -2.1711
  133MOL    H3042534   0.890   6.541   4.594  0.8186 -1.1153  1.4532
  133MOL    H3142535   0.979   6.767   4.572  0.4863  1.2073 -0.5574
  133MOL    H3242536   1.117   6.880   4.246  0.4547  0.3728 -0.6361
  133MOL    H3342537   1.014   6.929   4.372  0.0672 -1.1858 -0.1473
  133MOL    C3442538   1.152   7.083   4.328 -0.4082  0.0990 -0.1266
  133MOL    C3542539   1.301   7.120   4.337 -0.5996  0.7359  0.2760
  133MOL    C3642540   1.398   7.057   4.256 -0.5677 -0.5703  1.0166
  133MOL    C3742541   1.537   7.075   4.278 -1.0700  0.2100 -0.2755
  133MOL   Cl3842542   1.658   6.998   4.184  0.0335 -0.5792 -0.1845
  133MOL    C3942543   1.581   7.160   4.383 -0.2007 -0.4139 -0.1963
  133MOL    C4042544   1.480   7.230   4.460  0.2600  0.4927  0.2393
  133MOL    C4142545   1.342   7.209   4.437  0.3499 -0.1416  0.1705
  133MOL    C4242546   1.082   7.139   4.207 -0.2844  0.4299 -0.3164
  133MOL    H4342547   1.116   7.122   4.424 -2.9052 -1.8105 -0.2501
  133MOL    H4442548   1.369   7.008   4.164  1.1418 -1.7206  1.0788
  133MOL    H4542549   1.687   7.172   4.397  0.1272 -1.1578 -1.9384
  133MOL    H4642550   1.520   7.291   4.539 -1.5015  2.0815 -0.0573
  133MOL    H4742551   1.271   7.245   4.510  0.8101 -1.4546  1.2898
  133MOL    H4842552   1.124   7.096   4.116  1.8671  0.5656  0.5729
  133MOL    H4942553   0.979   7.105   4.204  0.3434 -1.3776 -2.3421
  133MOL    C5042554   1.075   7.298   4.205  0.4393  0.3288  0.2838
  133MOL    C5142555   1.050   7.337   4.058 -0.0081 -0.0094 -0.6039
  133MOL    C5242556   0.938   7.276   3.991 -0.0629 -0.1001 -0.3062
  133MOL    C5342557   0.899   7.315   3.862 -0.6636 -0.1662  0.4192
  133MOL   Cl5442558   0.731   7.283   3.801 -0.1011 -0.3248  0.1968
  133MOL    C5542559   0.975   7.419   3.800 -0.6076  0.1219  0.2111
  133MOL    C5642560   1.094   7.465   3.856 -0.3865  0.2180 -0.1083
  133MOL    C5742561   1.128   7.429   3.987  0.2381 -0.3350  0.1549
  133MOL    C5842562   0.957   7.362   4.296 -0.6797 -0.2930  0.9445
  133MOL    H5942563   1.172   7.337   4.233  1.6400 -2.0908 -0.3176
  133MOL    H6042564   0.868   7.207   4.036  0.1312 -0.7025 -0.9191
  133MOL    H6142565   0.944   7.437   3.698 -1.4988 -1.7645  0.1322
  133MOL    H6242566   1.155   7.542   3.810 -0.7876 -0.0254 -1.0494
  133MOL    H6342567   1.218   7.465   4.033  0.8278 -0.0447 -1.2153
  133MOL    H6442568   0.874   7.300   4.263 -1.7640  1.1172  0.9705
  133MOL    H6542569   0.984   7.335   4.399 -0.7205  0.0371  1.0444
  133MOL    C6642570   0.950   7.519   4.284 -0.2875  0.7944 -0.3586
  133MOL    C6742571   0.801   7.560   4.277  0.6321 -0.8200 -0.7157
  133MOL    C6842572   0.708   7.564   4.385 -0.1811  0.0699 -0.1856
  133MOL    C6942573   0.579   7.618   4.372  0.5305 -0.1123 -0.6710
  133MOL   Cl7042574   0.476   7.611   4.509 -0.0841  0.1539 -0.2830
  133MOL    C7142575   0.533   7.661   4.246 -0.0759  0.0715 -0.6017
  133MOL    C7242576   0.626   7.655   4.138  0.3635 -0.0231 -0.7905
  133MOL    C7342577   0.755   7.600   4.153  0.4776  0.6035 -0.0033
  133MOL    C7442578   1.020   7.587   4.404  0.0975  0.3109  0.3039
  133MOL    H7542579   1.008   7.554   4.198  0.9215  2.4457  1.0809
  133MOL    H7642580   0.743   7.533   4.482 -0.4896 -1.8393 -0.6695
  133MOL    H7742581   0.438   7.711   4.240 -1.1390 -1.9253 -0.6746
  133MOL    H7842582   0.599   7.678   4.036 -1.3463 -0.9628 -0.5688
  133MOL    H7942583   0.820   7.595   4.066  2.0502  0.4285  1.1647
  133MOL    H8042584   0.995   7.692   4.391  2.7270  0.8381 -0.8300
  133MOL    H8142585   0.971   7.547   4.493 -1.0614  1.8589  0.3790
  133MOL    C8242586   1.175   7.572   4.420  0.2288 -0.4022 -0.2980
  133MOL    C8342587   1.255   7.612   4.295 -0.0266 -0.2117 -0.0101
  133MOL    C8442588   1.223   7.736   4.232  0.4693 -0.1714  0.3191
  133MOL    C8542589   1.285   7.770   4.111 -0.2157  0.4110 -0.1536
  133MOL   Cl8642590   1.257   7.925   4.046 -0.1318 -0.2527  0.1743
  133MOL    C8742591   1.370   7.682   4.044 -0.7509 -0.1705  0.4243
  133MOL    C8842592   1.412   7.567   4.112  0.0258  0.0237 -0.1067
  133MOL    C8942593   1.355   7.529   4.236  0.3985 -0.6242  0.2965
  133MOL    C9042594   1.238   7.636   4.544 -0.4380 -0.1339  0.4536
  133MOL    H9142595   1.196   7.465   4.430  1.0850 -0.2314 -0.2307
  133MOL    H9242596   1.161   7.812   4.277  0.3056  0.1861 -0.5054
  133MOL    H9342597   1.404   7.712   3.946 -1.4555 -0.6844  0.0119
  133MOL    H9442598   1.468   7.495   4.054 -0.6416 -0.2215 -0.4514
  133MOL    H9542599   1.386   7.435   4.280  1.9017 -0.2281  0.1178
  133MOL    H9642600   1.343   7.606   4.542 -0.3532  0.2564 -1.1507
  133MOL    H9742601   1.243   7.744   4.527  0.4238 -0.2978 -0.3654
  133MOL    C9842602   1.172   7.610   4.681  0.9338  0.3422 -0.6296
  133MOL    C9942603   1.195   7.462   4.724  0.4127 -0.5512 -0.5720
  133MOL   C10042604   1.096   7.362   4.718 -0.6226  0.4663 -0.2632
  133MOL   C10142605   1.119   7.237   4.771 -0.6178  0.1410  0.5816
  133MOL  Cl10242606   0.995   7.124   4.780 -0.3321 -0.3012  0.1517
  133MOL   C10342607   1.244   7.206   4.824  1.0016  1.0040 -0.0188
  133MOL   C10442608   1.349   7.300   4.824  0.0784 -0.1136 -0.7577
  133MOL   C10542609   1.323   7.429   4.778  0.4366  0.3096  0.1275
  133MOL   C10642610   1.210   7.715   4.786 -0.2720  0.7355 -0.3014
  133MOL   H10742611   1.065   7.629   4.672  0.5546 -2.1125 -1.9680
  133MOL   H10842612   0.996   7.384   4.683 -0.9364  1.0919  0.9927
  133MOL   H10942613   1.261   7.107   4.863  0.4480  1.5525  1.6501
  133MOL   H11042614   1.445   7.276   4.867 -0.5673 -1.6614 -0.1452
  133MOL   H11142615   1.404   7.500   4.784  0.2513  0.4386  1.4065
  133MOL   H11242616   1.158   7.689   4.878  1.0632 -1.4653 -0.1283
  133MOL   H11342617   1.313   7.689   4.811 -1.0936  0.8883  3.5457
  133MOL   C11442618   1.196   7.867   4.741  1.1192 -0.3674  0.1010
  133MOL   C11542619   1.061   7.908   4.673 -0.2758 -0.2367 -0.4091
  133MOL   C11642620   1.061   7.942   4.539 -0.0544 -0.4929 -0.4041
  133MOL   C11742621   0.940   7.954   4.471  0.3276  0.0380 -0.3856
  133MOL  Cl11842622   0.931   7.988   4.300 -0.1983 -0.0652  0.3572
  133MOL   C11942623   0.819   7.938   4.546 -0.8921  1.0193 -0.3585
  133MOL   C12042624   0.820   7.901   4.681 -0.6428 -0.3755  0.0615
  133MOL   C12142625   0.943   7.881   4.746 -0.8155  0.0290  0.4383
  133MOL   C12242626   1.237   7.956   4.854  0.1062 -0.7242  0.8026
  133MOL   H12342627   1.280   7.880   4.674  0.4791 -0.1179 -0.6594
  133MOL   H12442628   1.148   7.959   4.478  0.1870  1.2186  0.4138
  133MOL   H12542629   0.727   7.959   4.495 -0.2630 -1.4850 -2.6485
  133MOL   H12642630   0.725   7.879   4.728 -0.7355 -2.1674 -0.9331
  133MOL   H12742631   0.946   7.844   4.847 -2.1695 -0.9437  0.1375
  133MOL   H12842632   1.163   7.940   4.933 -0.1585 -0.5950  0.5803
  133MOL   H12942633   1.325   7.915   4.903 -0.2363 -3.0655 -0.5065
  133MOL   C13042634   1.276   8.107   4.832 -0.3325  0.3112 -0.7158
  133MOL   C13142635   1.156   8.195   4.813  0.9205  0.5811  0.8089
  133MOL   C13242636   1.038   8.173   4.887  0.1670  0.6787 -0.1218
  133MOL   C13342637   0.922   8.244   4.860  0.2249  0.1115 -0.9304
  133MOL  Cl13442638   0.782   8.227   4.963 -0.1572  0.0910  0.5126
  133MOL   C13542639   0.926   8.348   4.762 -0.0361 -0.0455 -0.1739
  133MOL   C13642640   1.045   8.381   4.693  0.0093  0.3597  0.0300
  133MOL   C13742641   1.157   8.305   4.726  0.1337 -0.3141  0.0096
  133MOL   C13842642   1.367   8.163   4.938  0.3135 -0.3805 -0.0708
  133MOL   H13942643   1.344   8.102   4.746 -0.4005  1.5848 -0.8474
  133MOL   H14042644   1.050   8.093   4.958  1.9587 -2.7156 -4.0138
  133MOL   H14142645   0.840   8.410   4.741 -0.9015 -1.5417 -1.1764
  133MOL   H14242646   1.039   0.023   4.617 -2.1022 -2.6377 -3.0526
  133MOL   H14342647   1.254   8.321   4.681 -0.7369  0.2876 -1.6884
  133MOL   H14442648   1.467   8.121   4.936  1.1710  1.5012  1.8524
  133MOL   H14542649   1.390   8.266   4.910 -0.7441 -0.1038  0.0429
  133MOL   C14642650   1.322   8.184   5.084  0.3771  0.1135 -0.3200
  133MOL   C14742651   1.287   8.055   5.153 -0.0191  0.3862  0.0456
  133MOL   C14842652   1.385   7.954   5.168 -0.0750  0.0908 -0.1271
  133MOL   C14942653   1.355   7.834   5.235 -0.6026  0.0305 -0.1044
  133MOL  Cl15042654   1.486   7.720   5.256  0.0270 -0.2865  0.4921
  133MOL   C15142655   1.229   7.812   5.283 -0.4480  0.1676  0.1493
  133MOL   C15242656   1.131   7.915   5.281 -0.2216  0.0849  0.0238
  133MOL   C15342657   1.158   8.034   5.212  0.3474 -0.2446  0.8560
  133MOL   C15442658   1.424   8.262   5.174 -0.0948  0.9354 -0.3734
  133MOL   H15542659   1.228   8.239   5.091 -0.1356 -0.5006 -2.0713
  133MOL   H15642660   1.481   7.971   5.121 -0.4512  2.4351 -0.1085
  133MOL   H15742661   1.202   7.718   5.329 -0.4829 -0.4654 -1.1520
  133MOL   H15842662   1.032   7.904   5.324 -0.0445 -1.0131  0.1589
  133MOL   H15942663   1.084   8.112   5.207 -1.1154 -1.7528 -1.7272
  133MOL   H16042664   1.501   8.195   5.212 -2.0006  0.4075  2.6300
  133MOL   H16142665   1.465   8.331   5.100 -0.0654 -2.1096 -3.3072
  133MOL   C16242666   1.356   8.327   5.302 -0.3375  0.1901 -0.6089
  133MOL   C16342667   1.314   8.236   5.413 -0.1343  0.7549 -0.3988
  133MOL   C16442668   1.401   8.138   5.467 -0.5792  0.0653 -0.5053
  133MOL   C16542669   1.356   8.053   5.567 -0.5718  0.4745  0.5661
  133MOL  Cl16642670   1.457   7.926   5.618 -0.1606  0.3148  0.0728
  133MOL   C16742671   1.217   8.065   5.613 -0.3251  0.3875 -0.4948
  133MOL   C16842672   1.134   8.170   5.570 -0.8490 -0.6911  0.1090
  133MOL   C16942673   1.181   8.254   5.465  0.3432 -0.1652 -0.1752
  133MOL   C17042674   1.447   0.005   5.363 -0.5123  0.0341  0.8025
  133MOL   H17142675   1.266   8.377   5.268  1.1053  1.6719 -2.3541
  133MOL   H17242676   1.503   8.132   5.431 -0.6160  1.2471 -0.8321
  133MOL   H17342677   1.183   7.993   5.686 -2.7779 -0.8205 -2.7542
  133MOL   H17442678   1.030   8.183   5.596 -1.1280  0.2184 -1.3907
  133MOL   H17542679   1.109   8.324   5.425  0.6688  0.7679  0.8552
  133MOL   H17642680   1.411   0.040   5.459 -2.5140 -0.5438  0.2730
  133MOL   H17742681   1.546   8.405   5.394 -0.2680  0.3130  0.3589
  133MOL   C17842682   1.466   0.126   5.266  0.2708  0.0181 -0.1606
  133MOL   C17942683   1.412   0.255   5.336 -0.4328 -0.5260  0.0962
  133MOL   C18042684   1.275   0.275   5.336  0.0380 -0.1886 -0.4051
  133MOL   C18142685   1.225   0.379   5.408 -0.8803  0.1363  0.1751
  133MOL  Cl18242686   1.053   0.384   5.431 -0.4076 -0.1320 -0.1521
  133MOL   C18342687   1.309   0.475   5.472  0.2206 -0.3285  0.1942
  133MOL   C18442688   1.451   0.461   5.466  0.4926 -0.2826  0.0159
  133MOL   C18542689   1.498   0.342   5.409  0.1943 -0.2820 -0.0544
  133MOL   C18642690   1.604   0.147   5.215  0.1304 -0.1008  0.2713
  133MOL   H18742691   1.407   0.103   5.177  0.2610 -0.5408 -0.0108
  133MOL   H18842692   1.212   0.203   5.287  1.3432 -0.9057 -1.0632
  133MOL   H18942693   1.262   0.561   5.519  0.4578  0.3055 -0.7038
  133MOL   H19042694   1.512   0.536   5.513  0.8021 -0.6230  0.1589
  133MOL   H19142695   1.606   0.329   5.405  0.1964 -0.1272 -0.5763
  133MOL   H19242696   1.670   0.152   5.301  1.2712  0.1799 -0.6143
  133MOL   H19342697   1.642   0.061   5.159  0.3999 -1.0779  1.9471
  133MOL   C19442698   1.623   0.279   5.139  0.4061 -1.0502 -0.0249
  133MOL   C19542699   1.768   0.327   5.161 -0.2597 -0.3078  0.4642
  133MOL   C19642700   1.881   0.246   5.146 -0.2766  0.4715  0.1252
  133MOL   C19742701   2.012   0.294   5.170  0.6180 -0.3038 -0.3761
  133MOL  Cl19842702   2.139   0.183   5.151 -0.1169  0.1523 -0.3137
  133MOL   C19942703   2.030   0.418   5.222  0.1422 -0.5864  0.7104
  133MOL   C20042704   1.919   0.500   5.239 -0.1619  0.5428  0.1941
  133MOL   C20142705   1.787   0.455   5.208  0.1241  0.8264 -0.4444
  133MOL   C20242706   1.596   0.258   4.987  1.0225 -0.5966 -0.6858
  133MOL   H20342707   1.556   0.361   5.165  1.0706 -0.4032 -0.3248
  133MOL   H20442708   1.859   0.146   5.110 -0.9200 -0.2878  2.5301
  133MOL   H20542709   2.128   0.456   5.246  0.0045 -0.0908  0.5094
  133MOL   H20642710   1.915   0.605   5.264 -0.4447 -0.1068  2.9739
  133MOL   H20742711   1.703   0.519   5.229  0.1099  0.2000  1.4690
  133MOL   H20842712   1.695   0.265   4.941  0.4536 -1.1280 -2.0275
  133MOL   H20942713   1.566   0.155   4.971 -1.8661  0.3947 -2.0869
  133MOL   C21042714   1.496   0.361   4.916  0.0841 -0.0506  0.8567
  133MOL   C21142715   1.551   0.502   4.935 -1.0730 -0.6184 -0.5683
  133MOL   C21242716   1.474   0.598   5.002  0.2658  0.4795  0.0440
  133MOL   C21342717   1.526   0.728   5.034  0.3934  0.5547  0.2654
  133MOL  Cl21442718   1.441   0.839   5.128  0.1993 -0.1923  0.2667
  133MOL   C21542719   1.652   0.756   4.984 -0.3591  0.4212 -0.1367
  133MOL   C21642720   1.732   0.662   4.916 -0.2485 -0.7898  0.2743
  133MOL   C21742721   1.685   0.532   4.894  0.0850 -0.2682  1.1148
  133MOL   C21842722   1.463   0.337   4.763  0.1238 -0.2487  0.7493
  133MOL   H21942723   1.402   0.355   4.971  0.2442 -0.8140  1.0489
  133MOL   H22042724   1.371   0.572   5.023  0.7042 -2.0686 -0.7253
  133MOL   H22142725   1.694   0.853   5.005 -1.8550  0.9735  0.3791
  133MOL   H22242726   1.836   0.682   4.895  0.2418 -3.1827  0.2506
  133MOL   H22342727   1.752   0.461   4.849 -1.7183 -0.3380 -1.5921
  133MOL   H22442728   1.398   0.416   4.725 -1.0755 -2.5240 -2.1071
  133MOL   H22542729   1.558   0.353   4.712 -0.4388  2.4748  0.4603
  133MOL   C22642730   1.388   0.201   4.747  0.5485 -0.6771  0.0123
  133MOL   C22742731   1.251   0.187   4.826 -0.3014  0.1220  0.6039
  133MOL   C22842732   1.131   0.252   4.786 -0.4962 -0.0184 -0.2197
  133MOL   C22942733   1.010   0.229   4.859 -0.6051 -0.8866 -0.6258
  133MOL  Cl23042734   0.867   0.318   4.813 -0.0328 -0.2807  0.0748
  133MOL   C23142735   1.012   0.145   4.971  0.9717  0.1400 -0.2965
  133MOL   C23242736   1.128   0.081   5.016 -0.5365  0.5547 -0.5439
  133MOL   C23342737   1.245   0.099   4.937 -0.5240 -0.2433  0.6292
  133MOL   C23442738   1.356   0.167   4.592 -0.0312 -0.0443 -0.9647
  133MOL   H23542739   1.460   0.124   4.778 -0.2562 -1.1735  0.6690
  133MOL   H23642740   1.124   0.325   4.707 -0.5702 -0.3741 -0.5485
  133MOL   H23742741   0.919   0.129   5.024  0.9041 -2.8270 -1.2136
  133MOL   H23842742   1.125   0.011   5.098  0.4358  0.3608 -0.6735
  133MOL   H23942743   1.343   0.057   4.953  0.0537  1.2798  1.2059
  133MOL   H24042744   1.284   0.085   4.594 -1.2049  0.9918  1.2858
  133MOL   H24142745   1.311   0.254   4.545 -0.2997 -0.1325 -0.8718
  133MOL   C24242746   1.489   0.108   4.531 -0.0249  0.0306  0.1965
  133MOL   C24342747   1.454   8.418   4.461 -1.0000  0.5811 -0.5236
  133MOL   C24442748   1.405   8.415   4.331  0.6932 -1.0601 -0.3154
  133MOL   C24542749   1.376   8.292   4.266  0.0661 -0.2614  0.1017
  133MOL  Cl24642750   1.314   8.295   4.108 -0.7836 -0.0117 -0.1707
  133MOL   C24742751   1.384   8.169   4.335  0.1951 -0.1508 -0.0571
  133MOL   C24842752   1.443   8.164   4.468  0.1340  0.4088  0.9451
  133MOL   C24942753   1.476   8.292   4.526 -0.1457  0.1185 -0.7402
  133MOL   C25042754   1.565   0.211   4.445  0.3187 -0.3592  0.0329
  133MOL   H25142755   1.561   0.076   4.606  1.4456 -0.1867 -1.2859
  133MOL   H25242756   1.387   0.072   4.278  1.4142 -0.8889 -0.2680
  133MOL   H25342757   1.344   8.079   4.290  0.4402 -0.6969  0.8161
  133MOL   H25442758   1.447   8.076   4.530 -0.2660 -0.3321 -0.0661
  133MOL   H25542759   1.526   8.295   4.622  0.4857 -0.1619 -1.0598
  133MOL   H25642760   1.508   0.241   4.357  1.4667  1.3994 -0.1397
  133MOL   H25742761   1.567   0.304   4.502  0.9771  0.0974 -0.7116
  133MOL   C25842762   1.708   0.163   4.393  0.3705 -0.3502  0.5093
  133MOL   C25942763   1.793   0.102   4.501 -0.2844 -0.3370  0.4067
  133MOL   C26042764   1.873   0.180   4.587  0.3241 -0.2839 -0.0222
  133MOL   C26142765   1.946   0.122   4.690 -0.4568  0.0099  0.0521
  133MOL  Cl26242766   2.034   0.218   4.795  0.1197 -0.3202 -0.4040
  133MOL   C26342767   1.944   8.422   4.717  0.1809 -0.0930  0.0457
  133MOL   C26442768   1.862   8.339   4.636  0.1569 -0.9007 -0.2037
  133MOL   C26542769   1.786   8.399   4.528  0.3113  0.4748  0.4722
  133MOL   C26642770   1.726   0.082   4.265 -0.4878 -0.4394  0.5024
  133MOL   H26742771   1.762   0.254   4.367 -0.0366 -0.5445 -1.0512
  133MOL   H26842772   1.881   0.286   4.570  1.1118  0.2093  3.1191
  133MOL   H26942773   2.000   8.387   4.803 -1.1034 -1.2970  0.4068
  133MOL   H27042774   1.850   8.236   4.667  0.8961 -0.8871  0.1372
  133MOL   H27142775   1.722   8.335   4.469  0.9204 -0.8789  1.2772
  133MOL   H27242776   1.833   0.066   4.257 -0.0315  2.0321  1.0367
  133MOL   H27342777   1.677   8.421   4.278  0.3982 -0.8518  0.8321
  133MOL   C27442778   1.676   0.141   4.141  0.6937 -0.0059 -0.3257
  133MOL   C27542779   1.748   0.269   4.105 -0.6304  0.0909 -0.5679
  133MOL   C27642780   1.676   0.391   4.077 -0.1246 -0.4991  0.9625
  133MOL   C27742781   1.744   0.506   4.030 -0.0462 -0.3641 -0.0304
  133MOL  Cl27842782   1.655   0.657   4.000  0.4083 -0.0097  0.3978
  133MOL   C27942783   1.883   0.497   4.001  0.3290 -0.4731  0.4006
  133MOL   C28042784   1.952   0.382   4.035  0.2245  0.5467  0.1662
  133MOL   C28142785   1.887   0.266   4.089 -0.4207 -0.2575  0.4218
  133MOL   C28242786   1.664   0.036   4.029  0.4086  0.5094  0.0973
  133MOL   H28342787   1.573   0.173   4.159  0.9448  0.7305 -0.1702
  133MOL   H28442788   1.569   0.403   4.092 -0.0969  1.7141 -0.4945
  133MOL   H28542789   1.947   0.580   3.972  1.0436 -0.2619  2.5283
  133MOL   H28642790   2.057   0.370   4.013  0.1616  1.0794 -0.4523
  133MOL   H28742791   1.948   0.183   4.122  0.0335 -0.6307 -1.3396
  133MOL   H28842792   1.766   8.434   4.015  0.5829  0.5563  1.1342
  133MOL   H28942793   1.620   8.376   4.057  2.1956 -0.0743  1.0508
  133MOL   C29042794   1.602   0.066   3.898  0.0422 -0.0629 -0.0206
  133MOL   C29142795   1.685   0.172   3.820 -0.3749 -0.1347  0.3857
  133MOL   C29242796   1.809   0.136   3.774 -0.1386 -0.8327 -0.1007
  133MOL   C29342797   1.874   0.222   3.683 -0.6904 -0.2989 -0.2598
  133MOL  Cl29442798   2.036   0.177   3.630  0.0660  0.4897  0.1279
  133MOL   C29542799   1.810   0.340   3.639  0.2187 -0.0421  0.4801
  133MOL   C29642800   1.685   0.374   3.686  0.3847 -0.1348  0.6832
  133MOL   C29742801   1.617   0.284   3.767  0.6227 -0.0153  0.3782
  133MOL   C29842802   1.567   8.377   3.819  0.3044  0.3760  0.1740
  133MOL   H29942803   1.502   0.102   3.921  0.2658  0.6584 -0.1884
  133MOL   H30042804   1.863   0.045   3.799  2.1042  0.3078 -0.6257
  133MOL   H30142805   1.857   0.417   3.580 -0.5998  1.0504  1.2418
  133MOL   H30242806   1.635   0.467   3.666  1.9097  0.4044 -0.6860
  133MOL   H30342807   1.521   0.302   3.811 -0.0073 -0.2992 -0.8476
  133MOL   H30442808   1.663   8.332   3.797 -0.4984 -0.7993 -1.0008
  133MOL   H30542809   1.508   8.313   3.885  1.7447 -0.6825  0.4375
  133MOL   C30642810   1.493   8.397   3.679  0.3680  0.4727 -0.8896
  133MOL   C30742811   1.461   8.260   3.622  0.8072  0.2084  0.0259
  133MOL   C30842812   1.366   8.171   3.688 -0.1000 -0.4966 -0.2114
  133MOL   C30942813   1.332   8.042   3.636  0.5049 -0.7059  0.0900
  133MOL  Cl31042814   1.223   7.941   3.718  0.1869 -0.1248  0.1206
  133MOL   C31142815   1.397   8.000   3.521 -0.2218  0.3081  0.3047
  133MOL   C31242816   1.497   8.080   3.465 -0.3423  0.2009  0.3053
  133MOL   C31342817   1.533   8.207   3.516 -0.2987  0.3267 -0.4528
  133MOL   C31442818   1.365   0.045   3.690 -0.2376  0.0679  0.4285
  133MOL   H31542819   1.564   0.017   3.618 -0.3698  1.1306 -1.1522
  133MOL   H31642820   1.322   8.210   3.779  0.2161  1.1219 -0.7314
  133MOL   H31742821   1.382   7.901   3.480 -2.5474  1.2660 -1.3195
  133MOL   H31842822   1.561   8.051   3.383 -0.5148  2.1758 -0.5456
  133MOL   H31942823   1.606   8.268   3.463 -0.2262  1.0542  0.4836
  133MOL   H32042824   1.319   0.047   3.591  0.2970 -0.7326  0.1580
  133MOL   H32142825   1.280   8.431   3.738 -0.4906  1.1549  1.1066
  133MOL   H32242826   1.369   0.146   3.730  1.8459 -0.3033  1.2175
  134MOL     C142827   5.368   3.346   7.194 -0.0039  0.1346  0.1841
  134MOL     C242828   5.340   3.333   7.049 -0.1519 -0.0043  0.5624
  134MOL     C342829   5.215   3.286   7.002 -0.1987  0.0186 -0.1273
  134MOL     C442830   5.190   3.268   6.863 -0.0229  0.6674  0.7772
  134MOL    Cl542831   5.035   3.207   6.806  0.2921 -0.2226  0.1884
  134MOL     C642832   5.297   3.304   6.771  0.6100  0.6536 -0.7837
  134MOL     C742833   5.416   3.368   6.819  0.3888 -0.1888  0.4152
  134MOL     C842834   5.440   3.378   6.954 -0.6078 -0.3767 -0.1643
  134MOL     C942835   5.403   3.489   7.239 -0.6065  0.8957  0.0768
  134MOL    H1042836   5.447   3.277   7.221  0.2392  1.4459  2.9719
  134MOL    H1142837   5.129   3.260   7.062 -1.5415 -1.6028 -2.6401
  134MOL    H1242838   5.274   3.282   6.667  1.3672  0.4695 -0.9142
  134MOL    H1342839   5.500   3.396   6.758  1.4364  2.2387  2.9001
  134MOL    H1442840   5.530   3.414   7.001 -2.8967  1.8490  2.6328
  134MOL    H1542841   5.504   3.504   7.200 -0.8761  0.8649 -0.6440
  134MOL    H1642842   5.343   3.560   7.182  0.2058  1.2326 -0.3830
  134MOL    H1742843   5.274   3.327   7.246  1.3332 -1.6482  1.9969
  134MOL    C1842844   5.408   3.509   7.394  0.1296 -0.3460  0.9318
  134MOL    C1942845   5.461   3.390   7.473  0.9004  0.3043 -0.4829
  134MOL    C2042846   5.375   3.319   7.556  0.3313  0.3009  0.2268
  134MOL    C2142847   5.427   3.214   7.634 -0.0441 -0.5746  0.5130
  134MOL   Cl2242848   5.330   3.141   7.755 -0.1344 -0.1300 -0.1084
  134MOL    C2342849   5.560   3.180   7.623 -0.1937  0.1880 -0.2771
  134MOL    C2442850   5.645   3.239   7.526  0.3579 -0.2787  0.2964
  134MOL    C2542851   5.594   3.345   7.451  0.3402  1.0220 -0.0796
  134MOL    C2642852   5.501   3.636   7.422 -0.2211  0.3311  0.3059
  134MOL    H2742853   5.308   3.537   7.427  1.6338  3.5270  2.5608
  134MOL    H2842854   5.268   3.332   7.552  0.5233  1.6963 -0.9214
  134MOL    H2942855   5.607   3.105   7.685 -2.9968 -0.4091  1.2150
  134MOL    H3042856   5.749   3.214   7.509 -0.0698 -0.9894 -1.4008
  134MOL    H3142857   5.662   3.398   7.385  0.6195  1.1804  0.3378
  134MOL    H3242858   5.493   3.658   7.528 -0.9633  0.5638  0.2012
  134MOL    H3342859   5.606   3.605   7.417  0.0418  1.1684  0.6032
  134MOL    C3442860   5.479   3.778   7.367  0.1373 -0.1119 -0.1273
  134MOL    C3542861   5.330   3.803   7.341 -0.4097  0.2559  0.0371
  134MOL    C3642862   5.233   3.785   7.442 -0.4724  0.4228  0.7184
  134MOL    C3742863   5.093   3.807   7.415 -0.0411 -0.2499  0.0162
  134MOL   Cl3842864   4.976   3.790   7.541  0.5505  0.0125 -0.1760
  134MOL    C3942865   5.056   3.857   7.284  0.6103  0.5250 -0.0122
  134MOL    C4042866   5.154   3.887   7.188 -0.4471 -0.4126 -0.1013
  134MOL    C4142867   5.291   3.854   7.215  0.0827  0.3632  0.5460
  134MOL    C4242868   5.538   3.878   7.467  0.8239 -0.1068 -0.4734
  134MOL    H4342869   5.534   3.788   7.273  0.7452  0.3691  0.2805
  134MOL    H4442870   5.262   3.754   7.542  0.4006 -0.8703  0.0789
  134MOL    H4542871   4.950   3.871   7.272  0.7354  1.4413 -0.0316
  134MOL    H4642872   5.130   3.929   7.092 -2.0503 -0.2445  0.3627
  134MOL    H4742873   5.357   3.871   7.132 -2.2165 -2.6487 -2.0079
  134MOL    H4842874   5.537   3.979   7.425  3.3024  0.8422  1.6052
  134MOL    H4942875   5.476   3.886   7.557 -2.0275  0.9789 -2.4624
  134MOL    C5042876   5.686   3.856   7.521 -0.0238 -0.0790 -0.3541
  134MOL    C5142877   5.787   3.866   7.406 -0.1193 -0.8534  1.0948
  134MOL    C5242878   5.858   3.753   7.360 -0.6800 -0.7766 -0.1866
  134MOL    C5342879   5.937   3.764   7.249 -0.0991  0.2887 -0.3235
  134MOL   Cl5442880   6.027   3.615   7.205  0.0802  0.1633 -0.1531
  134MOL    C5542881   5.951   3.888   7.184 -1.4370 -0.0797 -0.2428
  134MOL    C5642882   5.894   4.006   7.231 -0.1211 -0.9372 -0.0191
  134MOL    C5742883   5.815   3.993   7.348  0.0631  0.5179 -0.0969
  134MOL    C5842884   5.706   3.960   7.635 -0.7285  0.3600 -0.7578
  134MOL    H5942885   5.686   3.756   7.565  0.8619 -0.0546 -0.2938
  134MOL    H6042886   5.857   3.670   7.429  2.0823  0.2102  1.0942
  134MOL    H6142887   6.013   3.888   7.095 -0.6104  0.5935  0.3200
  134MOL    H6242888   5.917   4.105   7.193 -1.3448 -1.0154 -1.0035
  134MOL    H6342889   5.776   4.083   7.392  0.8270  1.2076 -0.8215
  134MOL    H6442890   5.664   4.057   7.607 -0.5860  0.0448 -2.1189
  134MOL    H6542891   5.644   3.929   7.719 -0.3593  0.3602 -0.4832
  134MOL    C6642892   5.855   3.977   7.678 -0.2175 -0.1398 -0.1199
  134MOL    C6742893   5.850   4.102   7.768 -0.3696 -0.3883  0.0447
  134MOL    C6842894   5.776   4.099   7.885 -0.4346 -0.0745  0.5151
  134MOL    C6942895   5.758   4.221   7.958  0.9162  0.3756 -0.7017
  134MOL   Cl7042896   5.671   4.212   8.112  0.1755  0.2328  0.3823
  134MOL    C7142897   5.820   4.343   7.919  0.3378  0.1144  0.5882
  134MOL    C7242898   5.894   4.334   7.794  0.1410 -0.3859  0.2811
  134MOL    C7342899   5.909   4.217   7.723  0.2622  0.1827  0.0367
  134MOL    C7442900   5.921   3.849   7.736  0.0474 -0.7115  0.5028
  134MOL    H7542901   5.931   3.996   7.602  1.8683 -0.2537  1.9010
  134MOL    H7642902   5.737   4.011   7.932 -0.1198 -1.1437 -1.1779
  134MOL    H7742903   5.816   4.438   7.971 -0.6070  0.1252  0.5128
  134MOL    H7842904   5.938   4.422   7.749  0.3602 -1.0568 -0.8154
  134MOL    H7942905   5.961   4.217   7.629 -0.7859  0.7504 -0.5447
  134MOL    H8042906   5.864   3.824   7.826 -0.2093 -1.8066  0.0376
  134MOL    H8142907   5.902   3.766   7.668 -2.3717 -0.8478  1.3105
  134MOL    C8242908   6.073   3.857   7.760 -0.3030  0.5970  0.1079
  134MOL    C8342909   6.106   3.775   7.892  0.0212 -0.3737 -0.7818
  134MOL    C8442910   6.144   3.641   7.883  0.1696  0.7777 -0.2362
  134MOL    C8542911   6.179   3.572   7.999  0.3489 -0.5623  0.1410
  134MOL   Cl8642912   6.239   3.414   7.989 -0.1794 -0.2817 -0.0258
  134MOL    C8742913   6.190   3.635   8.123 -0.5565  0.9569 -0.6324
  134MOL    C8842914   6.146   3.765   8.135 -0.6192  0.6982  0.0873
  134MOL    C8942915   6.104   3.842   8.020  0.6763 -0.0117  0.0126
  134MOL    C9042916   6.162   3.796   7.644 -1.0165 -0.6772  0.4644
  134MOL    H9142917   6.098   3.962   7.779  1.8705 -0.2865  2.5314
  134MOL    H9242918   6.176   3.584   7.797  2.5598  0.5566  0.7491
  134MOL    H9342919   6.221   3.579   8.209  1.4719  0.7681 -1.4633
  134MOL    H9442920   6.156   3.822   8.226 -1.5624  2.1492 -0.6804
  134MOL    H9542921   6.093   3.949   8.025 -0.3632 -0.0184 -1.8632
  134MOL    H9642922   6.265   3.777   7.672 -1.1075  1.8356  2.6810
  134MOL    H9742923   6.132   3.692   7.632 -0.1143 -0.9175  0.2953
  134MOL    C9842924   6.183   3.867   7.516  0.3518 -0.0647  0.0917
  134MOL    C9942925   6.232   4.014   7.545 -0.2065  0.8769 -1.6752
  134MOL   C10042926   6.353   4.049   7.615  0.0718  0.2389  0.4910
  134MOL   C10142927   6.409   4.177   7.608  0.1239  0.6594  0.4993
  134MOL  Cl10242928   6.571   4.193   7.665  0.2785 -0.3932 -0.2269
  134MOL   C10342929   6.335   4.284   7.554 -0.4782 -0.4259 -0.6675
  134MOL   C10442930   6.210   4.258   7.496  0.2962  0.6485  0.4141
  134MOL   C10542931   6.162   4.125   7.489  0.1049 -0.0815  0.0609
  134MOL   C10642932   6.271   3.789   7.415  0.5436 -0.0254 -0.6382
  134MOL   H10742933   6.085   3.879   7.470  0.3736  0.2027  0.1187
  134MOL   H10842934   6.422   3.970   7.641  0.2411  0.8266  1.8915
  134MOL   H10942935   6.377   4.384   7.559 -0.3018 -0.4501 -1.6207
  134MOL   H11042936   6.162   4.341   7.447 -3.4535 -1.4885  0.2425
  134MOL   H11142937   6.069   4.111   7.436 -0.8104 -1.0911  1.8665
  134MOL   H11242938   6.347   3.759   7.488 -2.1376  1.9227  3.1314
  134MOL   H11342939   6.235   3.692   7.381 -1.9064  0.7334 -0.2562
  134MOL   C11442940   6.353   3.866   7.311 -0.1335  0.2443  0.3159
  134MOL   C11542941   6.467   3.782   7.257 -0.5854  1.0352  0.6569
  134MOL   C11642942   6.442   3.677   7.162 -0.0940  0.3446 -0.2761
  134MOL   C11742943   6.545   3.600   7.109  0.2703  0.4201  0.0482
  134MOL  Cl11842944   6.516   3.483   6.986 -0.0492 -0.4132 -0.0704
  134MOL   C11942945   6.677   3.634   7.144  0.5216 -0.2414 -0.4046
  134MOL   C12042946   6.704   3.737   7.236  0.2574  0.1550 -0.6922
  134MOL   C12142947   6.595   3.812   7.293 -0.6241  0.4187  0.1900
  134MOL   C12242948   6.273   3.919   7.189 -0.2459  0.2090  0.6267
  134MOL   H12342949   6.404   3.950   7.358  0.5306 -0.0012  0.0359
  134MOL   H12442950   6.346   3.639   7.130  0.9720 -0.1625 -2.9773
  134MOL   H12542951   6.762   3.586   7.098  1.1700 -0.8700  1.3983
  134MOL   H12642952   6.804   3.744   7.275 -0.3691 -2.0332  1.3867
  134MOL   H12742953   6.617   3.892   7.362  0.1027 -1.1919  1.8715
  134MOL   H12842954   6.220   3.846   7.128  0.8496 -0.0648 -0.0047
  134MOL   H12942955   6.188   3.978   7.224 -1.4365  0.0221 -1.8442
  134MOL   C13042956   6.339   4.032   7.093  0.3457  0.8462 -0.7518
  134MOL   C13142957   6.401   4.155   7.162  0.6132 -0.1289  0.3993
  134MOL   C13242958   6.313   4.272   7.165 -0.1855  0.2633 -0.1590
  134MOL   C13342959   6.349   4.382   7.243 -0.8829 -0.1706  0.5075
  134MOL  Cl13442960   6.240   4.516   7.255  0.0402 -0.1907  0.4922
  134MOL   C13542961   6.479   4.392   7.292  0.0420  0.1289  0.0684
  134MOL   C13642962   6.566   4.278   7.286 -0.0988 -0.1240  0.2862
  134MOL   C13742963   6.529   4.154   7.222 -0.0448 -0.0619  0.2754
  134MOL   C13842964   6.434   3.975   6.983 -1.4345  0.8448 -0.0998
  134MOL   H13942965   6.252   4.060   7.035 -0.2606  0.1672 -0.1785
  134MOL   H14042966   6.216   4.273   7.118  0.5846 -2.8484 -2.0151
  134MOL   H14142967   6.508   4.487   7.333 -1.3432 -0.2689  2.0648
  134MOL   H14242968   6.667   4.288   7.324  0.7050 -2.8688 -0.9706
  134MOL   H14342969   6.593   4.068   7.225 -0.6655 -0.6207 -1.5188
  134MOL   H14442970   6.536   3.963   7.018 -1.7481 -1.4452  0.0915
  134MOL   H14542971   6.398   3.874   6.962 -3.1899  1.1327  1.3433
  134MOL   C14642972   6.430   4.045   6.852 -0.0839 -0.0651  0.2588
  134MOL   C14742973   6.475   4.191   6.859  0.1136  0.3331 -0.2020
  134MOL   C14842974   6.612   4.219   6.897 -0.5332  1.1446 -0.0501
  134MOL   C14942975   6.639   4.345   6.947  0.3827 -0.7897  0.8463
  134MOL  Cl15042976   6.788   4.376   7.039 -0.3048  0.1875 -0.4327
  134MOL   C15142977   6.548   4.452   6.931  0.5002 -0.0970  0.3060
  134MOL   C15242978   6.425   4.429   6.869  0.9999 -0.3921 -0.2709
  134MOL   C15342979   6.385   4.299   6.834  0.2865  0.8428 -0.0770
  134MOL   C15442980   6.491   3.970   6.736 -0.0685  0.2667 -0.3343
  134MOL   H15542981   6.326   4.041   6.820  0.3540  0.6049 -1.2739
  134MOL   H15642982   6.680   4.139   6.919 -0.3105  1.8828  2.0954
  134MOL   H15742983   6.571   4.553   6.961 -0.9594  1.1352 -2.4232
  134MOL   H15842984   6.360   4.512   6.845 -0.6742 -2.2021 -2.0994
  134MOL   H15942985   6.292   4.270   6.788  0.7228 -3.3696  1.4748
  134MOL   H16042986   6.460   4.035   6.654 -0.3090  0.6832  0.0789
  134MOL   H16142987   6.598   3.988   6.731 -0.1220  0.8157  0.3511
  134MOL   C16242988   6.443   3.832   6.695 -0.2070  0.6258 -0.4892
  134MOL   C16342989   6.291   3.836   6.678  0.0395  0.4322 -0.8037
  134MOL   C16442990   6.225   3.919   6.582 -0.2833  0.4708  0.2518
  134MOL   C16542991   6.085   3.918   6.565  0.6043  0.7713  0.2410
  134MOL  Cl16642992   6.003   4.015   6.442 -0.1163  0.1047 -0.0701
  134MOL   C16742993   6.010   3.838   6.650 -0.3702  0.5116 -0.1432
  134MOL   C16842994   6.070   3.771   6.756 -0.4087 -1.0671  0.0655
  134MOL   C16942995   6.210   3.759   6.763  0.0676  0.5612  0.1984
  134MOL   C17042996   6.511   3.756   6.572 -0.3411  0.1221 -0.7749
  134MOL   H17142997   6.452   3.769   6.784 -0.8739  0.0083 -0.8538
  134MOL   H17242998   6.277   3.985   6.515 -1.1380 -0.0185 -0.9041
  134MOL   H17342999   5.902   3.833   6.641 -0.4571 -0.4615  1.2902
  134MOL   H17443000   6.009   3.706   6.816 -0.7002 -0.7431  0.1200
  134MOL   H17543001   6.239   3.693   6.842 -1.6927  0.6052  0.9058
  134MOL   H17643002   6.517   3.816   6.482  0.4611  0.1869 -0.6821
  134MOL   H17743003   6.617   3.735   6.591 -1.0463 -0.9743  2.2302
  134MOL   C17843004   6.449   3.627   6.524 -0.2502 -0.1644  0.1501
  134MOL   C17943005   6.525   3.589   6.393  0.4442  0.1221  0.3711
  134MOL   C18043006   6.469   3.637   6.273  0.3675 -0.4327  0.0167
  134MOL   C18143007   6.529   3.604   6.151  0.5880 -0.0135  0.2347
  134MOL  Cl18243008   6.456   3.655   6.008  0.2704  0.3718 -0.1324
  134MOL   C18343009   6.643   3.523   6.146 -1.3036  0.1722 -0.0977
  134MOL   C18443010   6.689   3.463   6.265  0.5893 -0.3685 -1.1298
  134MOL   C18543011   6.641   3.506   6.389  0.3252  0.1296  0.2875
  134MOL   C18643012   6.445   3.510   6.629 -0.4830 -0.2548  0.7002
  134MOL   H18743013   6.348   3.652   6.494  0.0570 -0.3102 -1.0239
  134MOL   H18843014   6.379   3.696   6.278  1.3168  1.1142 -0.3200
  134MOL   H18943015   6.688   3.502   6.051 -1.5948  2.1869 -0.7229
  134MOL   H19043016   6.771   3.393   6.262 -0.2256 -1.4737  1.3534
  134MOL   H19143017   6.685   3.465   6.479  1.5054 -0.5905 -0.6040
  134MOL   H19243018   6.517   3.433   6.601 -0.9539  0.4227 -2.5572
  134MOL   H19343019   6.491   3.534   6.725 -0.0508 -0.9412  0.6667
  134MOL   C19443020   6.308   3.439   6.646 -0.4219  0.7966 -0.0202
  134MOL   C19543021   6.274   3.371   6.513 -0.1546 -0.2051  0.5322
  134MOL   C19643022   6.181   3.433   6.424 -0.9062 -0.6532 -0.1173
  134MOL   C19743023   6.162   3.378   6.296  0.0585  0.3915  0.1292
  134MOL  Cl19843024   6.059   3.474   6.191 -0.0021  0.4714 -0.2313
  134MOL   C19943025   6.216   3.252   6.264  0.4999  0.4424 -0.0939
  134MOL   C20043026   6.318   3.195   6.341  0.5233 -0.5264  0.0771
  134MOL   C20143027   6.352   3.257   6.463  0.2551 -0.4364 -0.0856
  134MOL   C20243028   6.300   3.358   6.773 -0.3264 -0.8712 -0.2707
  134MOL   H20343029   6.235   3.520   6.645 -0.5384  0.6814 -2.5010
  134MOL   H20443030   6.146   3.531   6.452  0.3373 -0.3201  0.3230
  134MOL   H20543031   6.196   3.211   6.166  0.8447 -0.8302  0.3519
  134MOL   H20643032   6.373   3.109   6.305  1.0428  0.8202 -2.4806
  134MOL   H20743033   6.426   3.217   6.530  1.1745  0.2788 -0.6511
  134MOL   H20843034   6.388   3.294   6.771 -1.6280 -2.7045 -2.6203
  134MOL   H20943035   6.305   3.425   6.858 -0.9364 -0.5674 -0.4747
  134MOL   C21043036   6.173   3.272   6.793  0.2286  0.1317  0.4705
  134MOL   C21143037   6.194   3.174   6.903  0.0347 -0.2414 -0.0098
  134MOL   C21243038   6.204   3.034   6.879  0.2352  0.1438 -0.5487
  134MOL   C21343039   6.229   2.945   6.982  0.7352 -0.3715 -0.5905
  134MOL  Cl21443040   6.257   2.782   6.935  0.1977 -0.3470  0.0466
  134MOL   C21543041   6.238   2.991   7.117 -0.6125  0.0953 -0.2012
  134MOL   C21643042   6.224   3.129   7.141  0.0384  0.2436  0.1961
  134MOL   C21743043   6.208   3.222   7.039 -0.3994 -0.0251  0.5524
  134MOL   C21843044   6.048   3.362   6.810  0.1867 -0.3372 -0.7396
  134MOL   H21943045   6.175   3.219   6.698  1.0580  1.3327 -0.1901
  134MOL   H22043046   6.205   3.001   6.776 -0.8011  0.2918 -0.6111
  134MOL   H22143047   6.251   2.936   7.210 -0.6167  1.8355  0.8542
  134MOL   H22243048   6.243   3.173   7.237  4.1608  2.6501 -1.5552
  134MOL   H22343049   6.203   3.325   7.068  0.2867  0.2392 -0.2509
  134MOL   H22443050   6.076   3.432   6.889  0.6783 -1.8193  0.4270
  134MOL   H22543051   6.039   3.424   6.720  0.0510 -0.1215 -0.5788
  134MOL   C22643052   5.923   3.296   6.860 -0.3400 -0.3519 -0.2464
  134MOL   C22743053   5.830   3.405   6.914 -0.1632 -0.9424  0.4790
  134MOL   C22843054   5.789   3.506   6.828 -0.1217 -0.5222 -0.2276
  134MOL   C22943055   5.713   3.615   6.876  0.0024  0.0491 -0.1351
  134MOL  Cl23043056   5.671   3.742   6.774 -0.1203 -0.1061  0.2496
  134MOL   C23143057   5.691   3.630   7.015 -0.4455 -0.7360  1.4569
  134MOL   C23243058   5.740   3.528   7.099 -0.0479 -0.3962  0.0732
  134MOL   C23343059   5.807   3.418   7.049  0.0001  0.5451 -0.2009
  134MOL   C23443060   5.860   3.208   6.757 -0.2133  0.7126 -0.2682
  134MOL   H23543061   5.937   3.239   6.952 -0.7423  0.8026  0.5415
  134MOL   H23643062   5.814   3.504   6.723  0.2336 -2.7674 -0.1351
  134MOL   H23743063   5.643   3.717   7.056 -0.1466 -0.2058  0.7039
  134MOL   H23843064   5.739   3.540   7.206 -1.4239  0.6891 -0.0472
  134MOL   H23943065   5.853   3.345   7.113 -1.2287  0.8669  1.0705
  134MOL   H24043066   5.857   3.250   6.656  0.6287 -2.0314 -1.5147
  134MOL   H24143067   5.921   3.117   6.760  0.3723  1.1600  3.4939
  134MOL   C24243068   5.711   3.156   6.774 -0.6849  0.4056 -0.3858
  134MOL   C24343069   5.670   3.072   6.659  0.0526 -0.7276 -0.2275
  134MOL   C24443070   5.743   2.963   6.611  0.3160  0.9313  0.2355
  134MOL   C24543071   5.690   2.885   6.509 -0.1658  0.1378  0.3353
  134MOL  Cl24643072   5.779   2.744   6.462 -0.2957 -0.3428  0.2262
  134MOL   C24743073   5.588   2.933   6.430  0.0262  0.0979  0.2740
  134MOL   C24843074   5.524   3.052   6.467 -0.3674 -0.2791 -0.1238
  134MOL   C24943075   5.563   3.114   6.590  0.5157  0.6121  0.6212
  134MOL   C25043076   5.662   3.114   6.916 -0.0143  0.2496  0.6745
  134MOL   H25143077   5.662   3.252   6.764  0.9159  1.4664  1.5783
  134MOL   H25243078   5.824   2.924   6.670  0.5429  1.1250  0.0517
  134MOL   H25343079   5.561   2.873   6.345  0.8306 -1.4795  1.1189
  134MOL   H25443080   5.445   3.090   6.405  0.8483 -1.9752 -2.7659
  134MOL   H25543081   5.503   3.196   6.625 -0.6670 -0.8493  2.0399
  134MOL   H25643082   5.693   3.188   6.990 -1.0673  0.5492  0.8265
  134MOL   H25743083   5.553   3.124   6.914  0.0601  0.8689 -0.4667
  134MOL   C25843084   5.689   2.966   6.966 -0.6156 -1.2825  0.2502
  134MOL   C25943085   5.703   2.965   7.117 -0.4474  0.1519 -0.7818
  134MOL   C26043086   5.831   2.977   7.172  0.1000  0.4381 -0.6614
  134MOL   C26143087   5.843   2.976   7.313  0.2859  0.6307  0.0452
  134MOL  Cl26243088   5.999   3.004   7.379 -0.0205 -0.0986 -0.3103
  134MOL   C26343089   5.735   2.958   7.396  0.0123 -0.8108  0.2539
  134MOL   C26443090   5.605   2.966   7.350 -0.5330 -0.5419  0.7871
  134MOL   C26543091   5.592   2.958   7.209 -0.6546  0.1918 -0.5536
  134MOL   C26643092   5.581   2.858   6.921  0.2432 -0.4078 -0.1606
  134MOL   H26743093   5.782   2.932   6.922 -0.5130 -2.2942  1.2223
  134MOL   H26843094   5.918   2.982   7.108  1.4645 -0.1256  1.1011
  134MOL   H26943095   5.752   2.947   7.502  0.1483  2.3539  0.6177
  134MOL   H27043096   5.517   2.953   7.411 -1.5069  0.4877 -0.3687
  134MOL   H27143097   5.491   2.950   7.173 -1.8297  4.2217  1.4533
  134MOL   H27243098   5.484   2.893   6.955  0.7455 -0.3344  1.2435
  134MOL   H27343099   5.571   2.863   6.813 -0.9602  0.6738 -0.0060
  134MOL   C27443100   5.596   2.708   6.964  0.2264  0.0065  0.0014
  134MOL   C27543101   5.467   2.637   6.938  0.5333  0.3153  0.2003
  134MOL   C27643102   5.393   2.577   7.046 -0.1224 -0.2205  0.6641
  134MOL   C27743103   5.273   2.499   7.020 -0.1415 -0.1159  0.2846
  134MOL  Cl27843104   5.209   2.404   7.146  0.7291 -0.0572 -0.0536
  134MOL   C27943105   5.221   2.497   6.883  0.0390  1.1305  0.0139
  134MOL   C28043106   5.291   2.568   6.787  0.5962  0.8953 -0.6665
  134MOL   C28143107   5.416   2.623   6.811  0.0938 -0.2919 -0.3762
  134MOL   C28243108   5.717   2.640   6.898 -0.4322  0.1168  0.5893
  134MOL   H28343109   5.623   2.710   7.069  1.0802  1.5334 -0.2337
  134MOL   H28443110   5.443   2.570   7.142  3.6045  0.3480 -1.1384
  134MOL   H28543111   5.125   2.452   6.867  0.8316 -0.0949 -1.3995
  134MOL   H28643112   5.255   2.596   6.689  1.0879  1.4426 -0.6960
  134MOL   H28743113   5.464   2.683   6.736  0.1241  0.0722 -0.0681
  134MOL   H28843114   5.710   2.658   6.791 -1.1602 -0.7270  0.4921
  134MOL   H28943115   5.804   2.694   6.936  0.5270 -1.3440  0.4784
  134MOL   C29043116   5.745   2.494   6.925  0.1013  0.0913 -0.5408
  134MOL   C29143117   5.839   2.440   6.809  1.0435  0.5093 -0.1334
  134MOL   C29243118   5.972   2.490   6.783  0.0954  0.0810  0.7792
  134MOL   C29343119   6.032   2.443   6.660  0.0035 -0.1546 -1.1406
  134MOL  Cl29443120   6.183   2.513   6.619 -0.1137 -0.1945  0.1880
  134MOL   C29543121   5.979   2.329   6.595  0.2854 -0.5791  0.1025
  134MOL   C29643122   5.864   2.265   6.636 -1.0722  0.0470 -0.0975
  134MOL   C29743123   5.795   2.323   6.741 -0.0967 -0.1838 -0.2426
  134MOL   C29843124   5.781   2.458   7.069  0.0769  0.1422  0.2020
  134MOL   H29943125   5.650   2.446   6.899 -0.1623  1.7276 -2.7271
  134MOL   H30043126   6.021   2.570   6.836  0.3270 -0.7541  1.8424
  134MOL   H30143127   6.045   2.295   6.516  0.8827 -3.4414  1.7573
  134MOL   H30243128   5.834   2.179   6.579  1.4736  0.0497 -1.5119
  134MOL   H30343129   5.700   2.278   6.767 -0.3235 -0.4140 -1.4302
  134MOL   H30443130   5.864   2.520   7.102 -0.4630  2.2749 -2.3010
  134MOL   H30543131   5.701   2.497   7.132 -1.9217  0.2648 -2.3584
  134MOL   C30643132   5.811   2.323   7.118 -0.6061 -0.0936 -1.0794
  134MOL   C30743133   5.838   2.331   7.265  0.4018  0.9141 -0.1910
  134MOL   C30843134   5.965   2.314   7.313  0.2163 -0.1515 -0.8949
  134MOL   C30943135   5.990   2.310   7.452  0.1592 -0.1189 -0.6474
  134MOL  Cl31043136   6.150   2.306   7.510  0.5115  0.1304 -0.1852
  134MOL   C31143137   5.880   2.337   7.542 -0.0070 -0.5200 -0.2643
  134MOL   C31243138   5.748   2.347   7.496  0.2213  0.3339 -0.0642
  134MOL   C31343139   5.724   2.348   7.353 -0.5206 -0.1876  0.6238
  134MOL   C31443140   5.716   2.208   7.092 -0.1538 -0.6834  0.8684
  134MOL   H31543141   5.902   2.297   7.062  0.9020  0.1456  1.2006
  134MOL   H31643142   6.056   2.309   7.255  1.0497  0.3066  0.3566
  134MOL   H31743143   5.899   2.322   7.647  0.5709  1.5434 -0.0608
  134MOL   H31843144   5.663   2.343   7.562 -0.3979  1.3170 -0.7939
  134MOL   H31943145   5.624   2.362   7.315  0.6251 -0.7174 -2.7304
  134MOL   H32043146   5.764   2.116   7.125  1.2668 -0.4115 -0.3877
  134MOL   H32143147   5.621   2.219   7.145 -0.6223 -0.2085 -0.0438
  134MOL   H32243148   5.693   2.204   6.986  2.6740  0.6244  0.1664
  135MOL     C143149   3.385   4.482   5.302  0.2949 -0.1040 -0.1797
  135MOL     C243150   3.527   4.527   5.303  0.4195  0.5733 -0.1389
  135MOL     C343151   3.570   4.623   5.398 -0.5101 -0.0137  0.2263
  135MOL     C443152   3.698   4.671   5.392 -0.4957  0.3297  0.2353
  135MOL    Cl543153   3.753   4.791   5.499 -0.0679 -0.0688  0.4580
  135MOL     C643154   3.788   4.623   5.291 -0.3124  0.1975  0.1818
  135MOL     C743155   3.753   4.522   5.199 -0.6377  0.4978 -0.9917
  135MOL     C843156   3.619   4.470   5.215 -0.3045  0.0312  0.2619
  135MOL     C943157   3.302   4.562   5.195  0.3807 -0.3137 -0.2714
  135MOL    H1043158   3.346   4.486   5.403  0.2694  0.0261 -0.1956
  135MOL    H1143159   3.506   4.674   5.469 -0.7772 -0.4767  0.3209
  135MOL    H1243160   3.891   4.657   5.286  0.0594 -1.0551 -1.6089
  135MOL    H1343161   3.822   4.474   5.132 -0.0428  1.3906 -1.0329
  135MOL    H1443162   3.595   4.386   5.151  1.3049  0.5431 -1.0320
  135MOL    H1543163   3.360   4.543   5.105  1.1656 -1.0045  0.3648
  135MOL    H1643164   3.206   4.516   5.173  0.4708 -0.0613 -1.1974
  135MOL    H1743165   3.379   4.377   5.272  0.3037  0.1907 -1.2607
  135MOL    C1843166   3.306   4.714   5.210  0.1307 -0.9756  0.8007
  135MOL    C1943167   3.257   4.788   5.087 -0.6099 -0.5038  0.4774
  135MOL    C2043168   3.340   4.879   5.018 -0.3323  0.3964 -0.0330
  135MOL    C2143169   3.291   4.946   4.906  0.4733 -0.4239  0.0052
  135MOL   Cl2243170   3.380   5.078   4.838  0.0226  0.1546  0.3644
  135MOL    C2343171   3.163   4.918   4.853 -0.2164  0.2395 -0.7498
  135MOL    C2443172   3.083   4.823   4.916  0.2543 -0.0624 -0.5373
  135MOL    C2543173   3.128   4.755   5.033 -0.4272 -0.5969 -0.3536
  135MOL    C2643174   3.234   4.748   5.337  0.4071  0.1825  0.1797
  135MOL    H2743175   3.413   4.732   5.222  0.5029 -2.0440 -0.7629
  135MOL    H2843176   3.443   4.898   5.044 -0.1034  0.5613 -1.0345
  135MOL    H2943177   3.124   4.982   4.776  1.5890 -1.0967 -2.8435
  135MOL    H3043178   2.980   4.802   4.893 -0.0316  1.1495 -0.3844
  135MOL    H3143179   3.073   4.676   5.082  1.5083 -0.7927  1.5905
  135MOL    H3243180   3.138   4.697   5.324 -0.2387  1.5124 -0.3738
  135MOL    H3343181   3.279   4.692   5.419  0.3809  0.9330  0.7167
  135MOL    C3443182   3.217   4.899   5.358 -0.3888  0.2574  0.3501
  135MOL    C3543183   3.069   4.931   5.391 -0.0603  0.5198  0.1033
  135MOL    C3643184   3.020   4.906   5.521 -0.0408  0.0098  0.5945
  135MOL    C3743185   2.879   4.913   5.545  0.3915  0.8397 -0.4167
  135MOL   Cl3843186   2.806   4.864   5.697 -0.1394  0.3141  0.1630
  135MOL    C3943187   2.794   4.965   5.443  0.8478 -0.0297  1.2399
  135MOL    C4043188   2.842   4.985   5.311  0.3189 -0.3159 -0.3384
  135MOL    C4143189   2.977   4.962   5.286 -0.4209  0.4554  0.1039
  135MOL    C4243190   3.320   4.961   5.452 -0.0540  0.3508  0.5401
  135MOL    H4343191   3.230   4.964   5.272  1.9569  0.1757  0.6319
  135MOL    H4443192   3.084   4.873   5.601 -0.4833  0.3572  1.1002
  135MOL    H4543193   2.687   4.967   5.458  0.6603  1.3328 -0.1873
  135MOL    H4643194   2.775   5.022   5.234 -1.9057  0.7638  2.0557
  135MOL    H4743195   3.020   4.971   5.187 -0.6492  2.5921  0.1598
  135MOL    H4843196   3.307   4.909   5.547 -1.0089 -0.4418 -0.0115
  135MOL    H4943197   3.422   4.934   5.426 -0.4106 -1.1262  0.6072
  135MOL    C5043198   3.310   5.116   5.475 -0.1801 -0.3555 -0.1571
  135MOL    C5143199   3.279   5.148   5.620  1.1075  0.5537 -0.4235
  135MOL    C5243200   3.359   5.105   5.730  0.5455  0.6302  0.1325
  135MOL    C5343201   3.329   5.135   5.861 -0.0653 -0.1867 -0.6851
  135MOL   Cl5443202   3.431   5.082   5.983 -0.3472  0.0819  0.0866
  135MOL    C5543203   3.206   5.203   5.887 -0.1629  0.0894  0.1227
  135MOL    C5643204   3.129   5.254   5.782 -0.3986  0.1118 -0.5089
  135MOL    C5743205   3.168   5.232   5.652 -0.0428 -0.0611 -0.2843
  135MOL    C5843206   3.436   5.198   5.435 -0.1177  0.6891 -0.2888
  135MOL    H5943207   3.220   5.148   5.422  0.6496  1.1153 -0.7067
  135MOL    H6043208   3.447   5.048   5.706  0.7338  1.4447 -1.1519
  135MOL    H6143209   3.178   5.217   5.990 -0.4992 -0.1570  0.0624
  135MOL    H6243210   3.038   5.308   5.800 -0.0820  0.1522  1.0300
  135MOL    H6343211   3.109   5.272   5.571  0.3675  0.0121 -0.5450
  135MOL    H6443212   3.421   5.296   5.481  0.0838 -0.3096  1.9718
  135MOL    H6543213   3.530   5.160   5.475  0.1753  0.9976 -0.6807
  135MOL    C6643214   3.452   5.225   5.281 -0.3702 -0.4725 -0.4525
  135MOL    C6743215   3.318   5.290   5.226  0.2170  0.3771  0.1503
  135MOL    C6843216   3.260   5.413   5.285 -0.8476  0.3981  0.0834
  135MOL    C6943217   3.142   5.473   5.242 -0.4037  0.1486  0.1623
  135MOL   Cl7043218   3.079   5.610   5.322  0.2205 -0.2538  0.2840
  135MOL    C7143219   3.067   5.399   5.142 -0.1622  0.3280 -0.3928
  135MOL    C7243220   3.122   5.279   5.083  0.0863 -0.1692  0.2452
  135MOL    C7343221   3.244   5.231   5.128 -0.2434  0.2289 -0.4231
  135MOL    C7443222   3.583   5.300   5.249 -0.0383  0.1198  0.5058
  135MOL    H7543223   3.442   5.125   5.240 -0.4987  0.2436 -2.2014
  135MOL    H7643224   3.319   5.457   5.364 -0.0556 -0.4411 -0.0296
  135MOL    H7743225   2.974   5.443   5.111  0.5463  2.6851  0.7743
  135MOL    H7843226   3.057   5.228   5.013  0.0872 -0.5709  0.5436
  135MOL    H7943227   3.280   5.142   5.077  3.1427 -0.1922  2.4635
  135MOL    H8043228   3.576   5.406   5.271  0.9088  0.3010 -0.0228
  135MOL    H8143229   3.655   5.251   5.314 -2.2939 -0.6181  2.4917
  135MOL    C8243230   3.627   5.284   5.098  0.6341  0.4426  0.4567
  135MOL    C8343231   3.693   5.415   5.064  0.3189 -0.1542 -0.3275
  135MOL    C8443232   3.619   5.496   4.981  0.3569  0.0767 -0.3748
  135MOL    C8543233   3.671   5.615   4.932 -0.7591 -0.6253 -0.0030
  135MOL   Cl8643234   3.577   5.710   4.825  0.4527 -0.0983 -0.2632
  135MOL    C8743235   3.800   5.656   4.968 -0.4879  0.0853  0.5991
  135MOL    C8843236   3.870   5.572   5.063 -0.1929  0.8668 -0.2031
  135MOL    C8943237   3.822   5.445   5.106 -0.6600  0.2067 -0.6832
  135MOL    C9043238   3.712   5.160   5.076 -0.0096  0.7136 -0.3876
  135MOL    H9143239   3.545   5.267   5.028  1.2580  0.2731 -0.2455
  135MOL    H9243240   3.520   5.463   4.951  1.0181 -1.5841 -0.7636
  135MOL    H9343241   3.842   5.745   4.922 -0.9345  1.2947  2.4796
  135MOL    H9443242   3.974   5.593   5.078  0.0177 -1.4970  1.9476
  135MOL    H9543243   3.878   5.379   5.171 -2.3045 -1.0962 -0.5515
  135MOL    H9643244   3.809   5.187   5.117 -0.2499  2.3233 -0.8183
  135MOL    H9743245   3.694   5.084   5.151 -0.5090  1.0306 -0.1777
  135MOL    C9843246   3.740   5.108   4.930 -0.5825  0.1433  0.7209
  135MOL    C9943247   3.767   5.220   4.831 -0.0866  0.4518  0.9488
  135MOL   C10043248   3.668   5.269   4.742  0.1434 -0.3393 -0.3360
  135MOL   C10143249   3.706   5.356   4.638  0.0612 -0.0447  0.7433
  135MOL  Cl10243250   3.591   5.402   4.518 -0.3466 -0.0968  0.1259
  135MOL   C10343251   3.837   5.410   4.627 -0.0425  0.3323  0.1777
  135MOL   C10443252   3.938   5.367   4.719 -0.1737 -0.3566  0.3407
  135MOL   C10543253   3.894   5.283   4.826  0.4006 -0.0502  0.2817
  135MOL   C10643254   3.848   4.997   4.936  0.0134  0.2156  0.4332
  135MOL   H10743255   3.656   5.054   4.886 -0.6285 -0.8344  2.0022
  135MOL   H10843256   3.561   5.249   4.747  0.0701  0.4331  1.6578
  135MOL   H10943257   3.869   5.469   4.542  3.2466 -1.8977 -0.2306
  135MOL   H11043258   4.034   5.415   4.716  1.0759 -2.8436 -2.0096
  135MOL   H11143259   3.967   5.279   4.907  0.4691 -1.1003  0.1763
  135MOL   H11243260   3.939   5.057   4.944 -1.2505  1.9523  2.2856
  135MOL   H11343261   3.817   4.938   5.022 -0.7350  0.5126  0.3704
  135MOL   C11443262   3.858   4.913   4.804  0.1064 -0.2257 -0.5081
  135MOL   C11543263   3.979   4.821   4.816  0.6765 -0.4285 -0.1863
  135MOL   C11643264   3.976   4.708   4.906  0.6493  0.3602  0.2046
  135MOL   C11743265   4.085   4.621   4.904 -0.2920 -0.0430 -0.3175
  135MOL  Cl11843266   4.077   4.481   5.003 -0.1493  0.0693  0.1526
  135MOL   C11943267   4.207   4.655   4.833  0.0616 -0.7746 -1.0745
  135MOL   C12043268   4.207   4.777   4.760 -0.2425  0.3226 -0.3642
  135MOL   C12143269   4.096   4.857   4.754  0.2330 -0.3092  0.3310
  135MOL   C12243270   3.728   4.846   4.759  0.8912 -0.2584 -0.3990
  135MOL   H12343271   3.882   4.994   4.736  1.9948  1.3499  1.9303
  135MOL   H12443272   3.890   4.688   4.967  0.7885 -2.0692 -0.3253
  135MOL   H12543273   4.292   4.589   4.835  0.1370 -0.8677  6.2337
  135MOL   H12643274   4.298   4.805   4.709  0.5341  0.2325  0.9502
  135MOL   H12743275   4.100   4.950   4.700 -2.0698  0.1961  0.9529
  135MOL   H12843276   3.742   4.738   4.762  2.1553 -0.1254 -0.7680
  135MOL   H12943277   3.646   4.860   4.829  1.5120 -1.7130  0.6485
  135MOL   C13043278   3.668   4.886   4.620 -0.7693  0.1632 -0.4616
  135MOL   C13143279   3.763   4.924   4.512 -0.2825 -0.4772 -0.4381
  135MOL   C13243280   3.864   4.831   4.477  0.0742 -0.5883 -0.8448
  135MOL   C13343281   3.963   4.868   4.379 -0.0873  0.2048  0.3891
  135MOL  Cl13443282   4.074   4.752   4.308 -0.0425  0.1770  0.1830
  135MOL   C13543283   3.960   5.002   4.327 -0.5314  0.4198 -0.4983
  135MOL   C13643284   3.861   5.093   4.363  0.1446  0.6048 -0.1628
  135MOL   C13743285   3.767   5.060   4.464 -0.2367  0.5803 -0.5187
  135MOL   C13843286   3.556   4.791   4.578 -0.2026  0.4403 -0.0720
  135MOL   H13943287   3.611   4.977   4.639 -0.8092  0.1759 -0.6459
  135MOL   H14043288   3.861   4.731   4.516 -0.0609  0.2372  1.2849
  135MOL   H14143289   4.035   5.041   4.259 -0.9794  1.0145 -0.6584
  135MOL   H14243290   3.858   5.195   4.325  0.6940  0.5472 -0.3580
  135MOL   H14343291   3.691   5.132   4.490 -0.8165 -0.1661 -0.1220
  135MOL   H14443292   3.472   4.803   4.646  2.0349  0.6485  2.7651
  135MOL   H14543293   3.518   4.845   4.491 -0.0799  1.2602  0.3740
  135MOL   C14643294   3.575   4.639   4.557 -0.1491  0.8172  0.2233
  135MOL   C14743295   3.595   4.554   4.682 -0.2622 -0.1668 -0.4922
  135MOL   C14843296   3.711   4.474   4.698  0.2616 -0.1284 -0.1983
  135MOL   C14943297   3.715   4.377   4.808 -0.5035 -0.6406  0.4313
  135MOL  Cl15043298   3.860   4.277   4.819 -0.2682  0.3905  0.3360
  135MOL   C15143299   3.606   4.362   4.892  0.1198  0.6343 -0.4697
  135MOL   C15243300   3.493   4.441   4.872 -0.1639 -0.1932 -0.0677
  135MOL   C15343301   3.490   4.538   4.775 -0.0660 -0.1376  0.7049
  135MOL   C15443302   3.462   4.566   4.479  0.6664 -0.1496 -0.5504
  135MOL   H15543303   3.657   4.621   4.487 -0.5143  0.2222 -0.0516
  135MOL   H15643304   3.790   4.476   4.624  0.5118 -0.5545  0.0518
  135MOL   H15743305   3.610   4.282   4.964  1.1822  1.3343  0.2519
  135MOL   H15843306   3.404   4.416   4.927  1.0660  0.3320  2.2046
  135MOL   H15943307   3.397   4.591   4.768  0.6149  0.8714 -1.1981
  135MOL   H16043308   3.469   4.460   4.503  2.4776 -0.6519 -3.1861
  135MOL   H16143309   3.366   4.610   4.507  2.2801  3.5314 -0.4222
  135MOL   C16243310   3.482   4.554   4.329  0.1120 -0.0078 -0.4319
  135MOL   C16343311   3.607   4.481   4.297  0.1690  0.9931  0.2458
  135MOL   C16443312   3.604   4.341   4.318 -0.3039  0.2835  0.0473
  135MOL   C16543313   3.705   4.263   4.273 -0.2218  0.2490  0.6218
  135MOL  Cl16643314   3.703   4.091   4.297 -0.5233  0.1787  0.0449
  135MOL   C16743315   3.812   4.327   4.205 -0.0968  0.4797 -0.1810
  135MOL   C16843316   3.812   4.462   4.184 -0.4232  0.7187  0.4525
  135MOL   C16943317   3.708   4.544   4.224 -0.3960  0.2223  0.7005
  135MOL   C17043318   3.361   4.505   4.252 -0.4922  0.3516  0.7485
  135MOL   H17143319   3.501   4.654   4.290  0.4140 -0.0404 -0.3656
  135MOL   H17243320   3.517   4.293   4.362 -0.3156  0.1004 -0.1706
  135MOL   H17343321   3.892   4.262   4.171  0.2049  1.6133 -1.6870
  135MOL   H17443322   3.896   4.513   4.140 -0.3169  0.2698  0.1284
  135MOL   H17543323   3.713   4.651   4.211  0.4517  0.3174  1.7847
  135MOL   H17643324   3.393   4.507   4.148 -0.6149 -0.8305  0.6758
  135MOL   H17743325   3.349   4.398   4.269  0.7269 -0.0087 -0.5497
  135MOL   C17843326   3.226   4.581   4.267 -0.3322  0.1493  0.3183
  135MOL   C17943327   3.245   4.731   4.241  0.2667 -0.2896 -0.2176
  135MOL   C18043328   3.252   4.820   4.351 -0.2154  0.2954 -0.2190
  135MOL   C18143329   3.274   4.958   4.332 -0.3470  0.1448 -0.0800
  135MOL  Cl18243330   3.295   5.057   4.466 -0.3477  0.0469 -0.0095
  135MOL   C18343331   3.284   5.010   4.200 -0.0484 -0.0092 -0.2819
  135MOL   C18443332   3.261   4.924   4.093  0.3369  0.3350  0.0180
  135MOL   C18543333   3.251   4.788   4.109 -0.0487 -0.9463  0.0930
  135MOL   C18643334   3.123   4.524   4.169 -0.0765 -0.0798  0.1226
  135MOL   H18743335   3.185   4.572   4.368 -0.5680 -0.9322  0.1277
  135MOL   H18843336   3.259   4.782   4.452  3.6412  2.4461  0.4199
  135MOL   H18943337   3.283   5.117   4.182  1.9009 -0.4490 -3.1483
  135MOL   H19043338   3.266   4.972   3.997  0.2793  0.0941 -0.1068
  135MOL   H19143339   3.236   4.724   4.023  1.5008 -2.7507  1.1123
  135MOL   H19243340   3.168   4.541   4.071 -1.8974 -0.2634 -0.7671
  135MOL   H19343341   3.129   4.415   4.173  0.3492  0.0004  1.8236
  135MOL   C19443342   2.982   4.573   4.166 -0.0616 -0.2740 -0.4845
  135MOL   C19543343   2.927   4.538   4.029  0.5219 -0.5881 -0.2585
  135MOL   C19643344   2.926   4.402   3.989 -0.2327 -0.4497  0.4666
  135MOL   C19743345   2.856   4.368   3.870 -0.1489 -0.6834 -0.4703
  135MOL  Cl19843346   2.856   4.210   3.807  0.3550  0.0609  0.0339
  135MOL   C19943347   2.778   4.460   3.805  0.2740 -0.0113  0.0163
  135MOL   C20043348   2.778   4.594   3.852 -0.4041  0.3813 -0.1533
  135MOL   C20143349   2.855   4.627   3.961  0.1510  0.0608  0.3999
  135MOL   C20243350   2.905   4.507   4.282  0.2831 -0.1843 -0.0616
  135MOL   H20343351   2.982   4.682   4.173  0.9564 -0.2316 -1.0639
  135MOL   H20443352   2.968   4.319   4.045 -2.5090 -1.5180  0.6165
  135MOL   H20543353   2.722   4.440   3.715  0.3191  0.8646 -0.2140
  135MOL   H20643354   2.709   4.661   3.804 -0.1977 -0.6402 -1.9092
  135MOL   H20743355   2.849   4.728   4.000  1.3441  0.5231 -0.5628
  135MOL   H20843356   2.901   4.399   4.263 -0.7500 -0.6355  2.4990
  135MOL   H20943357   2.962   4.515   4.375  0.7483 -0.5414 -0.3120
  135MOL   C21043358   2.764   4.550   4.305 -0.4861 -0.1568 -0.2057
  135MOL   C21143359   2.693   4.439   4.383  0.9643 -0.6409 -0.9869
  135MOL   C21243360   2.589   4.369   4.315  0.4256 -0.1633 -0.3970
  135MOL   C21343361   2.522   4.262   4.385 -0.2408 -0.1708  0.7411
  135MOL  Cl21443362   2.389   4.188   4.312  0.0746 -0.1227 -0.1348
  135MOL   C21543363   2.560   4.227   4.509  0.0685  0.7005 -0.3170
  135MOL   C21643364   2.662   4.298   4.575 -0.0609 -0.0207  0.7371
  135MOL   C21743365   2.721   4.407   4.518  0.4337 -0.5046  0.2501
  135MOL   C21843366   2.755   4.683   4.382 -0.3606 -1.0212  0.1601
  135MOL   H21943367   2.718   4.575   4.209 -0.7127  2.1537  0.4698
  135MOL   H22043368   2.546   4.392   4.218 -0.6477 -0.1912  0.0628
  135MOL   H22143369   2.504   4.149   4.557 -0.2666 -0.0143 -1.8279
  135MOL   H22243370   2.687   4.267   4.675 -0.5997  0.7260  1.1107
  135MOL   H22343371   2.794   4.469   4.568 -0.5391  0.0080  1.0469
  135MOL   H22443372   2.781   4.665   4.486 -1.8683  0.4606  0.8197
  135MOL   H22543373   2.826   4.752   4.336 -1.8359 -1.4212 -2.8847
  135MOL   C22643374   2.623   4.768   4.374  0.0949 -1.2580 -0.3011
  135MOL   C22743375   2.557   4.767   4.237  0.1871  0.1294  0.0046
  135MOL   C22843376   2.461   4.665   4.198 -0.4367 -0.3985 -0.1815
  135MOL   C22943377   2.405   4.664   4.070  0.3808 -0.4784  0.2318
  135MOL  Cl23043378   2.272   4.560   4.037  0.2322 -0.0659  0.5372
  135MOL   C23143379   2.448   4.753   3.975  0.3559  0.2491  0.3695
  135MOL   C23243380   2.552   4.842   4.006 -0.9332  0.7067  0.0112
  135MOL   C23343381   2.610   4.848   4.135 -0.9449  0.1058 -0.2532
  135MOL   C23443382   2.525   4.739   4.493 -0.0776  0.3803  0.3753
  135MOL   H23543383   2.655   4.872   4.386 -1.6386 -0.3202 -3.0809
  135MOL   H23643384   2.417   4.599   4.271 -1.2119  0.3000 -0.0130
  135MOL   H23743385   2.395   4.760   3.881  2.0392  0.3810 -0.5845
  135MOL   H23843386   2.585   4.903   3.923  1.4036 -0.5212 -0.0065
  135MOL   H23943387   2.685   4.921   4.161  0.5551 -1.0703 -1.2165
  135MOL   H24043388   2.468   4.646   4.486 -1.4618  1.0710  2.0604
  135MOL   H24143389   2.576   4.733   4.589  0.2440  0.0829  0.1879
  135MOL   C24243390   2.418   4.852   4.510  1.0139 -0.2790 -0.4750
  135MOL   C24343391   2.276   4.803   4.535  1.1504  0.1481  0.0664
  135MOL   C24443392   2.239   4.762   4.665  0.4692  0.4104  0.0648
  135MOL   C24543393   2.107   4.710   4.686 -0.1167 -0.0028 -0.1930
  135MOL  Cl24643394   2.071   4.667   4.842 -0.0470  0.1218 -0.3640
  135MOL   C24743395   2.020   4.692   4.579 -0.0242 -0.0797 -0.0312
  135MOL   C24843396   2.059   4.718   4.447  0.1153  0.0766  0.4520
  135MOL   C24943397   2.190   4.780   4.428  0.4067 -0.3572 -0.1371
  135MOL   C25043398   2.462   4.972   4.607  0.0439  0.1226  0.8690
  135MOL   H25143399   2.413   4.895   4.410 -1.0047 -1.7377 -1.0338
  135MOL   H25243400   2.306   4.776   4.748 -0.5277  0.3307  0.9017
  135MOL   H25343401   1.925   4.644   4.601  0.3696  0.4247  3.0135
  135MOL   H25443402   1.989   4.697   4.368 -0.1740  1.3672  0.3589
  135MOL   H25543403   2.220   4.810   4.329  2.5863  2.2603  1.2259
  135MOL   H25643404   2.494   4.928   4.701  1.0889 -1.1494 -0.0592
  135MOL   H25743405   2.546   5.019   4.556 -1.5495  2.0896 -0.0279
  135MOL   C25843406   2.356   5.084   4.648 -0.0099  0.4499  0.2238
  135MOL   C25943407   2.395   5.146   4.769  0.0347 -0.4946 -0.6177
  135MOL   C26043408   2.521   5.196   4.787 -0.2227  0.3038 -0.6409
  135MOL   C26143409   2.567   5.253   4.905  0.4713  0.8248 -0.2776
  135MOL  Cl26243410   2.725   5.322   4.921  0.1114 -0.0295 -0.0307
  135MOL   C26343411   2.479   5.269   5.014 -0.3910 -0.2939  0.5863
  135MOL   C26443412   2.352   5.199   5.007 -0.7473  0.5299  0.0635
  135MOL   C26543413   2.311   5.139   4.883 -0.4254 -0.2282 -0.2224
  135MOL   C26643414   2.310   5.184   4.540 -0.8893 -0.2936 -0.5881
  135MOL   H26743415   2.267   5.024   4.667  0.1255 -0.1181 -0.8497
  135MOL   H26843416   2.585   5.187   4.700  0.2105  1.2488 -0.4296
  135MOL   H26943417   2.521   5.318   5.101 -0.3016 -1.6208  1.3055
  135MOL   H27043418   2.289   5.211   5.094 -0.5209 -2.1310  0.6402
  135MOL   H27143419   2.216   5.090   4.872 -0.1435 -1.3392  1.9833
  135MOL   H27243420   2.328   5.288   4.569 -1.9446 -0.0782 -0.6648
  135MOL   H27343421   2.368   5.157   4.452 -2.3762 -0.2715 -1.6053
  135MOL   C27443422   2.157   5.170   4.507 -0.2757 -0.6036  0.5393
  135MOL   C27543423   2.078   5.191   4.629  0.7757  0.5458  0.5851
  135MOL   C27643424   1.970   5.101   4.651  0.4811 -0.2300 -0.4769
  135MOL   C27743425   1.879   5.126   4.755  0.6980 -0.3738 -0.1349
  135MOL  Cl27843426   1.756   5.021   4.796 -0.0370 -0.0649  0.3444
  135MOL   C27943427   1.896   5.245   4.830  0.0741  0.2363 -0.1407
  135MOL   C28043428   2.007   5.329   4.813  0.1211 -0.3304  0.1044
  135MOL   C28143429   2.100   5.301   4.711 -0.2327  0.1650  0.3611
  135MOL   C28243430   2.115   5.283   4.411 -0.6975 -0.0904 -0.2059
  135MOL   H28343431   2.145   5.073   4.459  1.3472  1.3940 -4.2430
  135MOL   H28443432   1.956   5.022   4.579 -4.0464  0.0438 -0.0523
  135MOL   H28543433   1.817   5.277   4.897  0.8132  2.8356 -0.4898
  135MOL   H28643434   2.004   5.419   4.873 -3.9951 -0.7695  0.6986
  135MOL   H28743435   2.160   5.388   4.687 -1.1873  0.8868  0.5789
  135MOL   H28843436   2.007   5.285   4.427 -0.6798  0.1100 -0.0979
  135MOL   H28943437   2.151   5.380   4.447 -0.0277 -0.0993 -0.8264
  135MOL   C29043438   2.140   5.262   4.257 -0.6067 -0.0854 -0.3938
  135MOL   C29143439   2.074   5.127   4.218 -0.1848 -0.1279 -0.1558
  135MOL   C29243440   1.936   5.092   4.237 -0.4593 -0.2108  0.5012
  135MOL   C29343441   1.886   4.964   4.189 -0.5228 -0.0954 -0.1957
  135MOL  Cl29443442   1.721   4.931   4.201  0.1962 -0.0339 -0.1382
  135MOL   C29543443   1.973   4.884   4.112 -0.4694 -0.3574 -0.5707
  135MOL   C29643444   2.113   4.921   4.094  0.1589 -0.0083  0.2844
  135MOL   C29743445   2.163   5.041   4.150 -0.1289  0.2793 -0.6551
  135MOL   C29843446   2.091   5.379   4.176 -0.6499  0.0946 -0.2900
  135MOL   H29943447   2.246   5.250   4.235  0.1556 -0.2828  3.1638
  135MOL   H30043448   1.861   5.160   4.273  0.5069  1.9726 -1.5007
  135MOL   H30143449   1.947   4.790   4.065  0.3666  0.4480 -2.7152
  135MOL   H30243450   2.176   4.855   4.035 -1.5563 -2.6866  1.3394
  135MOL   H30343451   2.268   5.064   4.137 -0.1313  0.2073 -0.7998
  135MOL   H30443452   2.062   5.344   4.077 -1.7069  1.2665 -0.4067
  135MOL   H30543453   1.998   5.419   4.217  0.6193  2.0360  0.7876
  135MOL   C30643454   2.194   5.498   4.162  0.4972 -0.1603  0.0206
  135MOL   C30743455   2.140   5.597   4.061  0.3232  0.2334  0.1203
  135MOL   C30843456   2.204   5.619   3.935  0.2975 -0.4660 -0.7292
  135MOL   C30943457   2.158   5.727   3.861 -0.2964  0.3952  0.2541
  135MOL  Cl31043458   2.237   5.749   3.713  0.1484  0.3100 -0.2251
  135MOL   C31143459   2.053   5.814   3.903 -0.2454  0.8343  0.6317
  135MOL   C31243460   1.991   5.790   4.022  0.5512  0.0105 -0.6734
  135MOL   C31343461   2.040   5.682   4.100 -0.3890 -0.8394 -0.1594
  135MOL   C31443462   2.242   5.566   4.299  0.6046 -0.8888 -0.3472
  135MOL   H31543463   2.280   5.445   4.123  0.1749  0.2117 -1.2121
  135MOL   H31643464   2.290   5.565   3.898  0.5717 -0.8655  0.4633
  135MOL   H31743465   2.018   5.897   3.843 -2.8865 -1.6122 -1.3903
  135MOL   H31843466   1.908   5.846   4.063  1.8519  1.2876  0.2699
  135MOL   H31943467   1.991   5.667   4.196  2.6236  0.2363  1.6020
  135MOL   H32043468   2.165   5.620   4.354  0.6651 -0.9748 -0.1795
  135MOL   H32143469   2.293   5.513   4.379 -2.0919 -1.1842  1.2673
  135MOL   H32243470   2.325   5.633   4.278  1.9824 -1.5646  2.6967
  136MOL     C143471   8.163   8.334   3.710  0.7709 -0.0134  0.2714
  136MOL     C243472   8.105   8.418   3.592  0.0486 -0.3282 -0.3795
  136MOL     C343473   8.180   0.023   3.482 -0.0707  0.1422 -0.5088
  136MOL     C443474   8.122   0.102   3.383 -0.5633  0.0407  0.0606
  136MOL    Cl543475   8.224   0.167   3.250  0.0807  0.2182 -0.2543
  136MOL     C643476   7.987   0.140   3.391  0.0468 -0.3317 -0.5454
  136MOL     C743477   7.911   0.110   3.502  0.6237  0.2257  0.6135
  136MOL     C843478   7.972   0.033   3.601  0.2593  0.2973 -0.4837
  136MOL     C943479   8.175   8.186   3.666 -0.4722  0.0163 -0.2651
  136MOL    H1043480   8.100   8.336   3.799 -0.1734  1.2536 -0.4157
  136MOL    H1143481   8.282   8.420   3.477  0.4663  1.5613 -0.3998
  136MOL    H1243482   7.944   0.181   3.301 -2.8533 -1.4343  0.2884
  136MOL    H1343483   7.813   0.153   3.515  0.5316 -0.2059  1.3735
  136MOL    H1443484   7.907   0.022   3.686  0.7557  3.5286  0.3566
  136MOL    H1543485   8.081   8.146   3.628 -1.4020 -0.4276  2.4012
  136MOL    H1643486   8.247   8.193   3.585  0.2438 -0.6058  0.3104
  136MOL    H1743487   8.263   8.371   3.730 -0.7939  3.5282  2.0151
  136MOL    C1843488   8.211   8.086   3.775 -0.1767 -0.0296 -0.5701
  136MOL    C1943489   8.136   8.112   3.907 -0.9817  0.2241  0.3200
  136MOL    C2043490   7.997   8.083   3.921  0.6121  0.3400  0.1422
  136MOL    C2143491   7.933   8.103   4.047  0.1593  0.1434 -1.5378
  136MOL   Cl2243492   7.758   8.082   4.074  0.1159  0.0175  0.5180
  136MOL    C2343493   8.008   8.157   4.153  0.3692 -0.1779  0.1531
  136MOL    C2443494   8.143   8.185   4.135  0.3129 -0.2761  0.1093
  136MOL    C2543495   8.210   8.171   4.015  0.4630  0.8107  0.3800
  136MOL    C2643496   8.199   7.942   3.730  0.5809 -0.1641  0.2763
  136MOL    H2743497   8.317   8.109   3.777  0.1875 -1.7864  2.3288
  136MOL    H2843498   7.932   8.061   3.837  0.0988  1.1072  0.3357
  136MOL    H2943499   7.958   8.174   4.247  1.5244  0.4423  0.6706
  136MOL    H3043500   8.191   8.236   4.217 -0.6618  0.1050  0.4476
  136MOL    H3143501   8.315   8.189   4.002  0.6351 -0.8859 -0.6913
  136MOL    H3243502   8.096   7.908   3.738 -0.0980  1.7305 -0.1864
  136MOL    H3343503   8.217   7.936   3.623 -1.0391  1.6039 -0.1199
  136MOL    C3443504   8.284   7.837   3.801  0.0458 -0.3884  0.2982
  136MOL    C3543505   8.211   7.701   3.807  0.1979  0.7074  0.0907
  136MOL    C3643506   8.215   7.628   3.927  0.3215 -0.0210 -0.5374
  136MOL    C3743507   8.149   7.505   3.939 -0.0028 -0.1593 -0.0676
  136MOL   Cl3843508   8.157   7.415   4.087 -0.0520 -0.1078  0.0121
  136MOL    C3943509   8.083   7.455   3.822  0.2870 -0.7046 -0.7617
  136MOL    C4043510   8.077   7.527   3.704 -0.7408 -0.3176  0.4079
  136MOL    C4143511   8.139   7.650   3.695 -0.2785 -0.4308  0.2352
  136MOL    C4243512   8.420   7.825   3.741 -0.6726 -0.0048 -0.3632
  136MOL    H4343513   8.298   7.871   3.904 -0.2284 -3.5118  1.4307
  136MOL    H4443514   8.277   7.664   4.008  0.0571  0.1124 -0.3946
  136MOL    H4543515   8.035   7.358   3.824  0.6924 -0.8892  0.5260
  136MOL    H4643516   8.031   7.490   3.614  2.4732 -1.5868 -0.8037
  136MOL    H4743517   8.120   7.712   3.608  2.4375 -0.0605 -0.1264
  136MOL    H4843518   0.006   7.718   3.730 -0.1152  0.2399 -1.8220
  136MOL    H4943519   8.418   7.865   3.640  1.6769  4.6851  1.3387
  136MOL    C5043520   0.113   7.891   3.810 -0.0211  0.6491  0.9008
  136MOL    C5143521   0.127   7.834   3.948 -0.5495  0.3893 -0.3543
  136MOL    C5243522   0.085   7.901   4.063 -0.8981  0.2278  0.5557
  136MOL    C5343523   0.108   7.845   4.191 -0.0416 -0.0936  0.4185
  136MOL   Cl5443524   0.067   7.944   4.328 -0.2646  0.0421  0.2585
  136MOL    C5543525   0.159   7.713   4.207  0.1032  0.6105  0.1877
  136MOL    C5643526   0.202   7.648   4.089 -0.2272 -0.2249 -0.2768
  136MOL    C5743527   0.186   7.708   3.959  0.6929  0.1013  0.1267
  136MOL    C5843528   0.252   7.880   3.732  0.9762  0.7379  0.1807
  136MOL    H5943529   0.090   7.998   3.814  0.5259  0.7874  0.3376
  136MOL    H6043530   0.046   8.002   4.059 -0.5222  0.3367 -0.6403
  136MOL    H6143531   0.180   7.679   4.307 -1.8682  2.0430  1.1286
  136MOL    H6243532   0.252   7.554   4.108  0.9824  0.5271  0.3606
  136MOL    H6343533   0.206   7.645   3.873 -0.4139 -0.1869  0.0802
  136MOL    H6443534   0.340   7.892   3.795  0.4887 -2.7751  1.6675
  136MOL    H6543535   0.260   7.778   3.696 -1.3737  0.1126  1.2986
  136MOL    C6643536   0.254   7.956   3.595  0.4046 -0.3549 -0.5573
  136MOL    C6743537   0.281   8.100   3.630 -0.4484 -0.3941 -0.5024
  136MOL    C6843538   0.183   8.196   3.622 -0.2058 -0.2733 -0.7346
  136MOL    C6943539   0.218   8.331   3.652  0.4799 -0.5269  0.9126
  136MOL   Cl7043540   0.100   0.014   3.616 -0.3841  0.3523  0.0845
  136MOL    C7143541   0.352   8.363   3.686 -0.3046 -0.3149  0.9217
  136MOL    C7243542   0.454   8.264   3.680  0.5755  0.1887 -0.9570
  136MOL    C7343543   0.410   8.132   3.667 -0.7438  0.2876  0.2908
  136MOL    C7443544   0.359   7.903   3.498  0.7267 -0.1560 -0.2406
  136MOL    H7543545   0.151   7.960   3.560 -0.2776 -0.5022  1.3509
  136MOL    H7643546   0.081   8.178   3.593 -1.0645  0.1613  1.8755
  136MOL    H7743547   0.388   0.030   3.685 -0.5880 -0.2064  1.4605
  136MOL    H7843548   0.556   8.297   3.680  1.0465 -1.2169 -2.1474
  136MOL    H7943549   0.489   8.058   3.678 -1.2428 -0.3737 -0.5537
  136MOL    H8043550   0.430   7.979   3.465  1.7803 -1.2526 -0.5611
  136MOL    H8143551   0.415   7.821   3.543  0.6493  0.3782  0.8665
  136MOL    C8243552   0.296   7.841   3.366  0.3947 -0.5421 -1.3097
  136MOL    C8343553   0.179   7.922   3.313  0.2812 -0.2424 -1.2561
  136MOL    C8443554   0.192   8.057   3.274  0.1368  0.2417  0.1343
  136MOL    C8543555   0.079   8.134   3.245  0.4644  0.1827 -0.1387
  136MOL   Cl8643556   0.100   8.294   3.198 -0.1290 -0.3641  0.2976
  136MOL    C8743557   8.386   8.081   3.259  0.9554  0.0164  0.3370
  136MOL    C8843558   8.376   7.942   3.295 -0.6251 -0.1116 -0.1215
  136MOL    C8943559   0.053   7.865   3.330 -0.2186 -0.4313 -0.4575
  136MOL    C9043560   0.399   7.817   3.248  0.4978  0.1557 -0.5153
  136MOL    H9143561   0.264   7.738   3.385 -0.7533 -0.5848 -3.3277
  136MOL    H9243562   0.292   8.097   3.270  0.5745 -0.9332 -1.0687
  136MOL    H9343563   8.297   8.138   3.237  1.3470  0.7222  0.5468
  136MOL    H9443564   8.277   7.900   3.285 -0.8560  0.2640  0.5437
  136MOL    H9543565   0.032   7.767   3.370 -2.0105  0.1660  0.1223
  136MOL    H9643566   0.347   7.824   3.152  1.5123  1.6304 -0.9632
  136MOL    H9743567   0.474   7.895   3.259  0.0775  0.6055 -0.8476
  136MOL    C9843568   0.463   7.672   3.252  0.5145 -0.1005  0.2717
  136MOL    C9943569   0.546   7.645   3.379 -0.2074  0.1221 -0.9347
  136MOL   C10043570   0.666   7.718   3.398  0.2315 -0.2534 -0.3215
  136MOL   C10143571   0.737   7.691   3.514  0.1153 -0.1260 -0.6280
  136MOL  Cl10243572   0.885   7.784   3.535 -0.2176  0.2358  0.0503
  136MOL   C10343573   0.689   7.601   3.607  0.3442  0.2136 -0.1899
  136MOL   C10443574   0.565   7.536   3.588  0.2268 -0.5319  0.4748
  136MOL   C10543575   0.496   7.552   3.471  0.0623 -0.4875 -0.0794
  136MOL   C10643576   0.374   7.553   3.200 -0.9607  0.0816  0.6810
  136MOL   H10743577   0.537   7.671   3.172 -0.8954 -1.7602 -1.0468
  136MOL   H10843578   0.704   7.789   3.326  3.1574 -3.3457 -1.9158
  136MOL   H10943579   0.734   7.597   3.705  1.1672 -1.1020 -0.6106
  136MOL   H11043580   0.524   7.476   3.668  2.0221 -0.0265  1.8038
  136MOL   H11143581   0.410   7.487   3.466 -0.3786 -0.0227  1.1567
  136MOL   H11243582   0.417   7.465   3.248  0.3987  0.0974 -0.5012
  136MOL   H11343583   0.273   7.565   3.241 -0.8595  0.6324  0.7661
  136MOL   C11443584   0.361   7.537   3.042 -0.3576 -0.6464 -0.0729
  136MOL   C11543585   0.493   7.520   2.971 -0.4095 -0.0606 -0.3490
  136MOL   C11643586   0.500   7.558   2.834  0.5549  0.6709  0.1820
  136MOL   C11743587   0.618   7.537   2.763  0.2223 -0.6431  0.7850
  136MOL  Cl11843588   0.618   7.562   2.589 -0.1533 -0.0143 -0.2109
  136MOL   C11943589   0.728   7.490   2.834 -0.3224 -0.1511  0.1221
  136MOL   C12043590   0.723   7.458   2.968 -0.0261 -0.3120 -0.4278
  136MOL   C12143591   0.600   7.463   3.041 -0.8774  0.6473  0.0522
  136MOL   C12243592   0.274   7.414   3.009  0.3893 -0.0161 -0.0738
  136MOL   H12343593   0.307   7.620   2.996 -1.0962 -0.1950  1.5602
  136MOL   H12443594   0.404   7.584   2.792 -0.5080  0.6539  2.5606
  136MOL   H12543595   0.811   7.477   2.766 -0.0507 -0.9290  0.5950
  136MOL   H12643596   0.817   7.420   3.005 -0.0004  1.6818  1.6657
  136MOL   H12743597   0.593   7.419   3.140  0.2234  0.1938 -0.0639
  136MOL   H12843598   0.325   7.366   2.925  5.1763  0.0855  2.5625
  136MOL   H12943599   0.279   7.341   3.090 -1.4000  0.2448  0.2887
  136MOL   C13043600   0.125   7.458   2.967  0.0064 -0.5076 -0.5480
  136MOL   C13143601   0.107   7.531   2.836  0.3464 -0.4706  0.0839
  136MOL   C13243602   0.148   7.471   2.714  0.2749 -0.1444  0.3036
  136MOL   C13343603   0.120   7.528   2.590  0.1861 -0.4514  0.1404
  136MOL  Cl13443604   0.173   7.440   2.451  0.2656 -0.1089  0.1705
  136MOL   C13543605   0.051   7.654   2.583  0.2845  0.4403  0.0857
  136MOL   C13643606   0.003   7.705   2.704  0.0093 -0.0643 -0.0539
  136MOL   C13743607   0.027   7.645   2.827 -0.4256  0.8251  0.2402
  136MOL   C13843608   0.030   7.331   2.946 -0.8521  0.1484 -0.0296
  136MOL   H13943609   0.087   7.529   3.039  0.8636  0.7786 -1.3375
  136MOL   H14043610   0.190   7.371   2.709 -3.0195 -1.5054 -1.6131
  136MOL   H14143611   0.018   7.698   2.491 -0.2281  0.5164  0.3027
  136MOL   H14243612   8.389   7.801   2.701  1.5606  0.7077 -2.0524
  136MOL   H14343613   8.418   7.689   2.915  0.0554  1.0952  0.3460
  136MOL   H14443614   8.377   7.366   2.893 -0.5644  1.2562  0.2203
  136MOL   H14543615   0.095   7.266   2.886 -0.6361  2.2495 -2.1329
  136MOL   C14643616   8.412   7.267   3.071  0.2933 -0.0924 -0.0360
  136MOL   C14743617   8.369   7.362   3.180  0.2148 -0.0179  0.4690
  136MOL   C14843618   8.406   7.335   3.318  0.4230 -0.3069  0.7315
  136MOL   C14943619   8.379   7.420   3.428  0.4109 -0.2814  0.3273
  136MOL  Cl15043620   0.017   7.388   3.577  0.5098  0.4407 -0.2442
  136MOL   C15143621   8.304   7.535   3.397  0.0160  0.3467  0.1354
  136MOL   C15243622   8.249   7.564   3.271  0.4011 -0.6149 -0.7593
  136MOL   C15343623   8.291   7.479   3.159  0.3763 -0.2317 -0.0345
  136MOL   C15443624   8.290   7.168   3.049  0.3159 -0.0892  0.3668
  136MOL   H15543625   0.064   7.220   3.114 -0.5015 -2.0081 -0.4847
  136MOL   H15643626   0.031   7.249   3.343 -1.4027 -1.6626  0.4844
  136MOL   H15743627   8.288   7.612   3.471 -0.5688 -0.9065  1.3264
  136MOL   H15843628   8.202   7.659   3.252  1.6060  0.4949  1.6221
  136MOL   H15943629   8.269   7.507   3.057 -2.8885 -0.5912  0.5217
  136MOL   H16043630   8.284   7.104   3.136 -0.7764 -0.2453  0.1823
  136MOL   H16143631   8.195   7.221   3.050 -0.7355 -1.9394  0.4661
  136MOL   C16243632   8.292   7.089   2.911 -0.6523 -0.0030  0.0610
  136MOL   C16343633   8.412   7.009   2.880  0.2266  0.5181  0.7606
  136MOL   C16443634   0.020   6.914   2.974 -0.1517  0.5664  0.2031
  136MOL   C16543635   0.126   6.822   2.943  0.8890 -0.9033 -0.3942
  136MOL  Cl16643636   0.184   6.712   3.062  0.2425  0.1549 -0.1175
  136MOL   C16743637   0.195   6.837   2.819  0.5312 -1.5657 -0.6183
  136MOL   C16843638   0.150   6.931   2.722  0.0602 -0.2650  0.4386
  136MOL   C16943639   0.041   7.016   2.750  0.6166  0.2084 -0.5515
  136MOL   C17043640   8.167   7.011   2.895 -0.0646  0.5620 -0.1701
  136MOL   H17143641   8.288   7.173   2.841  1.4064  0.1962  0.1418
  136MOL   H17243642   8.397   6.905   3.065 -0.7126  0.8066 -0.1303
  136MOL   H17343643   0.285   6.782   2.796  1.2620 -0.3349 -0.7282
  136MOL   H17443644   0.190   6.937   2.622 -2.1004  0.6700 -0.4099
  136MOL   H17543645   0.012   7.086   2.673 -0.5418  1.4479  0.9908
  136MOL   H17643646   8.181   6.912   2.938 -1.1687  0.0201 -1.0263
  136MOL   H17743647   8.085   7.046   2.958 -0.7662 -1.3139 -0.0201
  136MOL   C17843648   8.114   6.999   2.750  0.8259  0.1037  0.6836
  136MOL   C17943649   8.145   6.858   2.694 -0.3622 -0.2559 -0.1578
  136MOL   C18043650   8.233   6.842   2.583 -0.4971 -0.4138 -0.1218
  136MOL   C18143651   8.285   6.718   2.551 -0.1817 -0.5370  0.1460
  136MOL  Cl18243652   8.401   6.686   2.425  0.4466 -0.0843 -0.5292
  136MOL   C18343653   8.235   6.607   2.625  0.0275  0.3147  0.1957
  136MOL   C18443654   8.153   6.621   2.732  0.3941  0.0765  0.6381
  136MOL   C18543655   8.094   6.745   2.756  0.0730 -0.4040  0.0222
  136MOL   C18643656   7.961   7.037   2.739 -0.0321 -0.3063  0.1125
  136MOL   H18743657   8.170   7.071   2.690 -1.5846  0.0591 -1.6858
  136MOL   H18843658   8.286   6.930   2.551 -0.5057 -0.1336  0.6239
  136MOL   H18943659   8.265   6.506   2.602  1.4756  1.0566 -1.2902
  136MOL   H19043660   8.117   6.534   2.785  0.8657  0.3250  1.3772
  136MOL   H19143661   8.026   6.755   2.840 -1.5735 -0.4471 -1.2881
  136MOL   H19243662   7.923   6.994   2.646 -0.7292  3.0925 -1.2610
  136MOL   H19343663   7.899   6.985   2.813  0.4968 -1.9856 -0.6106
  136MOL   C19443664   7.942   7.191   2.742  0.1043  0.3827  0.0920
  136MOL   C19543665   8.028   7.265   2.635 -0.0661 -0.6970 -0.0032
  136MOL   C19643666   8.027   7.216   2.507  0.2447  0.5312  0.1760
  136MOL   C19743667   8.097   7.283   2.403 -0.3273  0.8190 -0.3042
  136MOL  Cl19843668   8.102   7.231   2.243 -0.2355  0.1003 -0.1497
  136MOL   C19943669   8.174   7.400   2.443  0.2834 -0.0112 -0.3960
  136MOL   C20043670   8.184   7.443   2.579  0.0206  0.2507 -0.6340
  136MOL   C20143671   8.108   7.371   2.677  0.9759 -0.2479  0.0002
  136MOL   C20243672   7.795   7.228   2.741 -0.0258 -0.4474  0.4290
  136MOL   H20343673   7.982   7.214   2.841  1.7866  0.8614 -0.6638
  136MOL   H20443674   7.962   7.136   2.474 -1.7279  1.6700  1.1958
  136MOL   H20543675   8.231   7.452   2.368 -1.3830  0.1502 -1.5965
  136MOL   H20643676   8.246   7.522   2.619  0.1129 -0.2672  0.2702
  136MOL   H20743677   8.119   7.398   2.781  0.1018 -0.5483  0.1757
  136MOL   H20843678   7.750   7.195   2.647 -0.4487  1.7527 -0.1692
  136MOL   H20943679   7.747   7.161   2.812 -0.1386 -0.0360  0.7414
  136MOL   C21043680   7.753   7.376   2.775  0.0235 -0.0867  0.2286
  136MOL   C21143681   7.612   7.395   2.741 -0.0984  0.2095 -0.2410
  136MOL   C21243682   7.513   7.325   2.811  0.5379  0.4247  0.5225
  136MOL   C21343683   7.378   7.347   2.778  0.7480  0.1599  0.0503
  136MOL  Cl21443684   7.260   7.254   2.864 -0.2103 -0.7204 -0.1781
  136MOL   C21543685   7.338   7.424   2.667 -0.2768  0.6843  0.8958
  136MOL   C21643686   7.439   7.489   2.595 -0.8523 -0.1751  0.5399
  136MOL   C21743687   7.570   7.478   2.637  0.4371  0.4648 -0.5560
  136MOL   C21843688   7.783   7.417   2.923 -0.4589 -0.6084 -0.4329
  136MOL   H21943689   7.815   7.433   2.706  0.5657 -0.2595  0.5722
  136MOL   H22043690   7.549   7.269   2.895 -1.4930 -0.1777  1.0264
  136MOL   H22143691   7.240   7.428   2.623  0.7324 -1.1144 -1.6471
  136MOL   H22243692   7.416   7.546   2.506  0.7340  0.3162  0.4237
  136MOL   H22343693   7.641   7.543   2.586 -1.3114  2.1129 -0.9328
  136MOL   H22443694   7.726   7.352   2.989  0.5498 -1.0657 -0.0043
  136MOL   H22543695   7.889   7.401   2.945 -0.2098  2.2799  0.7680
  136MOL   C22643696   7.751   7.562   2.964  0.4249 -0.3675 -0.8277
  136MOL   C22743697   7.721   7.575   3.109  0.3889 -0.4951  0.2202
  136MOL   C22843698   7.592   7.621   3.150 -0.5442 -0.4039 -0.4857
  136MOL   C22943699   7.568   7.632   3.291 -0.0526 -0.5220 -0.7711
  136MOL  Cl23043700   7.419   7.699   3.355  0.2700  0.3854 -0.1959
  136MOL   C23143701   7.669   7.598   3.383 -0.0467  0.2127  0.0757
  136MOL   C23243702   7.796   7.545   3.340  1.0320  0.0649  0.4458
  136MOL   C23343703   7.820   7.535   3.203  0.4273 -0.4516 -0.2149
  136MOL   C23443704   7.873   7.652   2.918 -0.4930 -0.9719  0.0571
  136MOL   H23543705   7.662   7.595   2.910  0.4028 -0.6257 -0.9522
  136MOL   H23643706   7.521   7.645   3.073 -0.4085 -0.3828 -0.6039
  136MOL   H23743707   7.648   7.609   3.488  1.6384 -0.0955  0.4532
  136MOL   H23843708   7.873   7.529   3.414  1.7514 -0.2364 -0.3719
  136MOL   H23943709   7.912   7.494   3.164  0.8086 -0.1856  0.3878
  136MOL   H24043710   7.959   7.609   2.970  0.0692 -0.3214 -0.3283
  136MOL   H24143711   7.893   7.644   2.811 -2.9141 -0.0506 -0.4907
  136MOL   C24243712   7.858   7.800   2.958 -0.3360  0.3189  0.5975
  136MOL   C24343713   7.982   7.887   2.968 -0.0266  0.0532 -0.1593
  136MOL   C24443714   7.976   8.008   3.041  0.4892  0.4750  0.3083
  136MOL   C24543715   8.091   8.088   3.050  0.2217  0.2912  0.0533
  136MOL  Cl24643716   8.078   8.227   3.151  0.1015  0.0236 -0.1957
  136MOL   C24743717   8.213   8.048   2.985 -0.1291  0.3919  0.8555
  136MOL   C24843718   8.218   7.919   2.925  0.9399 -0.6117  0.4264
  136MOL   C24943719   8.105   7.840   2.912 -0.2477 -0.1297  0.1587
  136MOL   C25043720   7.753   7.876   2.875  0.5588  0.4420 -0.1002
  136MOL   H25143721   7.812   7.810   3.057 -1.2495  4.3447 -0.1513
  136MOL   H25243722   7.884   8.031   3.092 -0.3515 -1.9323 -0.0459
  136MOL   H25343723   8.297   8.115   2.993  0.3429 -0.1242  0.2161
  136MOL   H25443724   8.317   7.891   2.893  0.5070 -0.7556 -0.7975
  136MOL   H25543725   8.100   7.741   2.867 -0.8775  1.1416 -2.7202
  136MOL   H25643726   7.672   7.812   2.841  0.5779 -0.8216  2.0894
  136MOL   H25743727   7.720   7.953   2.945 -0.7763 -0.4369  0.2589
  136MOL   C25843728   7.798   7.969   2.759 -0.3793  0.6171 -0.2235
  136MOL   C25943729   7.873   7.899   2.650 -0.1028  0.3269 -0.7571
  136MOL   C26043730   7.811   7.788   2.592  0.2987  0.2256 -0.2761
  136MOL   C26143731   7.879   7.713   2.490 -0.1849  0.3226 -0.1069
  136MOL  Cl26243732   7.804   7.585   2.397  0.0535  0.4264  0.3272
  136MOL   C26343733   8.010   7.750   2.457 -0.3702 -0.2776 -0.3134
  136MOL   C26443734   8.069   7.861   2.524  0.3695  0.1395  0.1676
  136MOL   C26543735   8.006   7.931   2.627 -0.1905 -0.1471 -0.3502
  136MOL   C26643736   7.678   8.051   2.703 -0.5453  0.2183  0.2591
  136MOL   H26743737   7.866   8.043   2.804  1.4579 -3.5717  4.3890
  136MOL   H26843738   7.709   7.759   2.616  0.5405  0.9569  1.6603
  136MOL   H26943739   8.058   7.718   2.367  0.5632 -1.1894  0.5013
  136MOL   H27043740   8.163   7.901   2.488 -0.2733  1.2517 -0.3014
  136MOL   H27143741   8.068   8.007   2.673  0.9588 -0.6804 -1.0044
  136MOL   H27243742   7.718   8.118   2.626 -0.9393 -0.9797 -1.0028
  136MOL   H27343743   7.612   7.989   2.642  0.9173 -0.1037 -1.0209
  136MOL   C27443744   7.593   8.137   2.797  0.4893 -0.8353  0.4939
  136MOL   C27543745   7.669   8.239   2.886 -0.0643 -0.1039 -0.5555
  136MOL   C27643746   7.665   8.231   3.024 -0.2338  0.2511 -0.5283
  136MOL   C27743747   7.742   8.331   3.095  0.0668 -0.3992 -0.1790
  136MOL  Cl27843748   7.740   8.330   3.270 -0.2275  0.1582 -0.1266
  136MOL   C27943749   7.818   8.429   3.028  0.7803  0.4410 -0.1303
  136MOL   C28043750   7.820   0.007   2.892  0.4906 -0.1529 -0.2795
  136MOL   C28143751   7.743   8.342   2.826 -0.0294  0.8220 -0.2236
  136MOL   C28243752   7.483   8.204   2.712 -0.1597 -0.3636 -0.3569
  136MOL   H28343753   7.539   8.072   2.867  0.4024 -0.0354  1.1847
  136MOL   H28443754   7.611   8.161   3.086 -0.6643 -0.9454 -2.2337
  136MOL   H28543755   7.878   0.057   3.092  1.3311 -0.5063  0.3001
  136MOL   H28643756   7.868   0.088   2.839 -0.3343 -0.5403 -1.6436
  136MOL   H28743757   7.720   8.344   2.720 -1.0184 -2.7123 -0.1169
  136MOL   H28843758   7.440   8.285   2.771  0.2606 -1.9376  2.2251
  136MOL   H28943759   7.535   8.250   2.628 -1.3678  1.3474 -0.1860
  136MOL   C29043760   7.372   8.106   2.662  0.8306 -0.1471  0.1322
  136MOL   C29143761   7.292   8.045   2.775 -0.1968  0.7239 -0.1947
  136MOL   C29243762   7.314   7.917   2.816  0.4813 -0.3736  0.0748
  136MOL   C29343763   7.245   7.865   2.927  0.2795  0.0813 -0.1916
  136MOL  Cl29443764   7.273   7.699   2.963 -0.0956  0.1273 -0.3265
  136MOL   C29543765   7.153   7.941   3.002 -0.3867  0.2833  0.5924
  136MOL   C29643766   7.124   8.076   2.958  0.0806  0.5865  0.2462
  136MOL   C29743767   7.195   8.125   2.849 -0.5504  0.0641 -0.0207
  136MOL   C29843768   7.286   8.171   2.551  0.1564 -0.0465  0.0810
  136MOL   H29943769   7.415   8.019   2.613 -0.7567 -0.1072 -1.3819
  136MOL   H30043770   7.390   7.855   2.770  2.1965  1.2278  0.6699
  136MOL   H30143771   7.098   7.900   3.085 -0.9135  1.4716  0.8495
  136MOL   H30243772   7.047   8.129   3.011  1.1070  0.1911  2.1774
  136MOL   H30343773   7.175   8.223   2.809  0.2715 -0.0626 -0.7905
  136MOL   H30443774   7.231   8.089   2.503  0.0027  0.2841 -0.3103
  136MOL   H30543775   7.200   8.215   2.601  0.1642  0.3605 -0.2639
  136MOL   C30643776   7.355   8.249   2.439 -0.7804 -0.1322  0.7651
  136MOL   C30743777   7.473   8.163   2.373  0.9504 -0.7716 -1.0609
  136MOL   C30843778   7.451   8.031   2.335 -0.4161 -0.2041  0.6414
  136MOL   C30943779   7.556   7.952   2.284 -0.0363 -0.5186  0.0132
  136MOL  Cl31043780   7.527   7.794   2.213  0.3807  0.2376  0.0706
  136MOL   C31143781   7.684   7.996   2.287  0.0366 -0.0872  0.0418
  136MOL   C31243782   7.707   8.126   2.341  0.0204  0.6920  0.1070
  136MOL   C31343783   7.606   8.216   2.377  0.0868  1.1895  0.3549
  136MOL   C31443784   7.262   8.283   2.315  0.5325  0.1226 -0.1983
  136MOL   H31543785   7.399   8.337   2.486  2.1858 -0.6068 -0.9919
  136MOL   H31643786   7.352   7.990   2.334 -0.3669 -0.3306 -1.4681
  136MOL   H31743787   7.772   7.935   2.268 -1.2292 -2.0417  0.3511
  136MOL   H31843788   7.811   8.154   2.349  0.1832  1.3895 -3.4952
  136MOL   H31943789   7.625   8.319   2.405  0.7270  1.6923 -1.8358
  136MOL   H32043790   7.200   8.200   2.281 -0.3375 -0.0155  1.6531
  136MOL   H32143791   7.202   8.365   2.353 -0.2865 -0.6396  0.1682
  136MOL   H32243792   7.318   8.315   2.227 -0.1626 -2.6414 -1.6998
  137MOL     C143793   1.230   8.295   7.298 -0.3789 -0.8004  0.2658
  137MOL     C243794   1.291   8.162   7.343 -0.0283  0.8783 -0.3897
  137MOL     C343795   1.217   8.062   7.405  0.1755  0.0495 -0.2812
  137MOL     C443796   1.272   7.936   7.440 -0.4409  0.1316  0.3245
  137MOL    Cl543797   1.176   7.805   7.492 -0.0339  0.3276 -0.0550
  137MOL     C643798   1.411   7.915   7.406  0.2527  0.1429  0.6169
  137MOL     C743799   1.485   8.015   7.345 -0.3514 -0.2704 -0.3522
  137MOL     C843800   1.425   8.141   7.315  0.0071  0.4865 -0.1941
  137MOL     C943801   1.091   8.337   7.372  0.0633 -0.1116 -0.2684
  137MOL    H1043802   1.231   8.289   7.190  0.6412  2.0538  0.0702
  137MOL    H1143803   1.110   8.075   7.412  0.3323  1.7499 -0.9838
  137MOL    H1243804   1.455   7.820   7.432  2.5367  0.6460 -1.2808
  137MOL    H1343805   1.585   7.997   7.307  1.0810 -0.1165  3.1307
  137MOL    H1443806   1.474   8.226   7.269 -1.2419  1.6709  0.6421
  137MOL    H1543807   1.106   8.308   7.476  1.5844 -3.5265 -1.3659
  137MOL    H1643808   1.080   0.011   7.366 -0.3658 -0.1268  0.2070
  137MOL    H1743809   1.307   8.369   7.324 -0.3650 -0.9704  0.7246
  137MOL    C1843810   0.953   8.275   7.325  0.0809 -0.3644 -0.4098
  137MOL    C1943811   0.842   8.351   7.407  0.1050 -0.3394  0.0198
  137MOL    C2043812   0.802   8.303   7.535 -0.5130 -0.5605 -0.1495
  137MOL    C2143813   0.702   8.372   7.608 -0.5407 -0.2283  0.0440
  137MOL   Cl2243814   0.648   8.305   7.761  0.2205  0.1928  0.2871
  137MOL    C2343815   0.646   0.051   7.556 -0.1248  0.0632  0.4170
  137MOL    C2443816   0.683   0.099   7.431  0.3703  1.0658 -0.2102
  137MOL    C2543817   0.779   0.029   7.354  0.2664  0.2625 -0.1029
  137MOL    C2643818   0.926   8.268   7.171 -0.5000  0.3584  0.1106
  137MOL    H2743819   0.942   8.173   7.362  1.5859 -0.7293 -0.9525
  137MOL    H2843820   0.852   8.214   7.569  1.4898  1.7266  3.3484
  137MOL    H2943821   0.579   0.106   7.619 -0.3249  0.1971  0.0889
  137MOL    H3043822   0.627   0.179   7.385 -1.3748 -0.2119 -0.3304
  137MOL    H3143823   0.802   0.062   7.253 -1.2903 -1.4489 -1.0439
  137MOL    H3243824   0.817   8.268   7.159 -0.9028  2.4538  3.1097
  137MOL    H3343825   0.967   8.357   7.126  0.3501  1.1739  2.4096
  137MOL    C3443826   0.982   8.144   7.096 -0.7946 -0.0378  0.4680
  137MOL    C3543827   0.912   8.007   7.117  0.5205  0.3510  0.0471
  137MOL    C3643828   0.779   7.990   7.071 -0.3987 -0.0899 -0.6097
  137MOL    C3743829   0.701   7.879   7.105  0.0328 -0.8082  0.3310
  137MOL   Cl3843830   0.531   7.878   7.067  0.1009 -0.0756 -0.1443
  137MOL    C3943831   0.760   7.781   7.174 -0.0148  0.8767  0.1084
  137MOL    C4043832   0.898   7.781   7.208  0.5996  0.1538  0.1640
  137MOL    C4143833   0.969   7.906   7.188 -0.0750  0.0165 -0.1546
  137MOL    C4243834   0.999   8.181   6.943 -0.0972 -0.6729  0.2954
  137MOL    H4343835   1.081   8.129   7.139 -0.6223  1.4817  0.6289
  137MOL    H4443836   0.745   8.064   7.000 -0.5798  0.4378  0.0267
  137MOL    H4543837   0.697   7.704   7.215 -0.7950  1.7005  0.4737
  137MOL    H4643838   0.942   7.685   7.233  2.0802  0.1042 -2.4162
  137MOL    H4743839   1.073   7.911   7.216  0.1675 -0.1700 -1.0018
  137MOL    H4843840   0.902   8.195   6.894  0.5075  1.3519 -0.4039
  137MOL    H4943841   1.047   8.279   6.945 -0.8505 -0.2461 -1.4311
  137MOL    C5043842   1.100   8.085   6.874  0.2471 -0.0178 -0.1761
  137MOL    C5143843   1.030   7.959   6.809  0.1298 -0.4063 -0.0698
  137MOL    C5243844   0.941   7.980   6.701 -0.5261  0.3984 -0.3204
  137MOL    C5343845   0.861   7.880   6.647  0.0134 -0.5355  0.2638
  137MOL   Cl5443846   0.758   7.905   6.507 -0.5562  0.1639  0.1920
  137MOL    C5543847   0.878   7.749   6.701 -0.1784  0.1655 -0.4471
  137MOL    C5643848   0.972   7.722   6.797 -0.4779 -0.1744  0.1049
  137MOL    C5743849   1.052   7.826   6.843 -0.3977 -0.3905 -0.2148
  137MOL    C5843850   1.197   8.155   6.780  0.4836 -0.4940 -0.4201
  137MOL    H5943851   1.165   8.039   6.949  0.1380  2.3921  1.4235
  137MOL    H6043852   0.919   8.081   6.669 -2.6954  0.8312  2.3059
  137MOL    H6143853   0.817   7.671   6.657 -3.4014  2.9762 -1.1034
  137MOL    H6243854   0.998   7.625   6.838 -0.7139 -0.2736  0.0232
  137MOL    H6343855   1.127   7.803   6.917 -1.9356 -1.5023  1.0278
  137MOL    H6443856   1.222   8.086   6.700 -0.4394 -1.5444  0.1826
  137MOL    H6543857   1.142   8.237   6.735  1.6075  0.4850 -0.0251
  137MOL    C6643858   1.333   8.208   6.856  0.2953 -0.0490  0.4116
  137MOL    C6743859   1.424   8.089   6.888  0.2484  0.3913 -0.0945
  137MOL    C6843860   1.523   8.043   6.794  0.6123 -1.0380 -0.2760
  137MOL    C6943861   1.610   7.935   6.822  0.8428  0.1737 -0.1491
  137MOL   Cl7043862   1.715   7.887   6.700 -0.6464 -0.5913 -0.1112
  137MOL    C7143863   1.598   7.864   6.938  0.6730 -0.0205  0.0791
  137MOL    C7243864   1.508   7.910   7.035 -0.0022 -0.1024  0.0393
  137MOL    C7343865   1.422   8.018   7.005  0.1020  0.0777 -0.4838
  137MOL    C7443866   1.399   8.311   6.759 -0.7588  0.7664  0.1786
  137MOL    H7543867   1.310   8.259   6.950  0.3447  0.8238 -0.0399
  137MOL    H7643868   1.534   8.093   6.699 -2.1859 -1.5836 -0.9399
  137MOL    H7743869   1.675   7.789   6.956 -0.5892 -1.1407  0.9447
  137MOL    H7843870   1.506   7.863   7.133  1.7711  0.5441  0.4146
  137MOL    H7943871   1.347   8.049   7.077  0.8948 -3.4932  2.0430
  137MOL    H8043872   1.507   8.311   6.775 -0.8087  1.8057  0.5520
  137MOL    H8143873   1.385   8.272   6.659  0.0567  0.1923  0.2845
  137MOL    C8243874   1.345   0.020   6.767 -0.3786  0.0977 -0.2515
  137MOL    C8343875   1.333   0.071   6.909  0.0928  0.0932  0.2371
  137MOL    C8443876   1.216   0.125   6.955  0.0208  0.7703  0.3077
  137MOL    C8543877   1.207   0.182   7.079  0.2552 -0.8740 -0.3206
  137MOL   Cl8643878   1.057   0.237   7.148  0.1130 -0.0949  0.1888
  137MOL    C8743879   1.317   0.171   7.162 -0.4201  0.5569  0.2301
  137MOL    C8843880   1.428   0.095   7.125  0.3043 -0.6947 -0.5551
  137MOL    C8943881   1.441   0.052   6.994  0.4114 -0.0467  0.1379
  137MOL    C9043882   1.434   0.117   6.677 -0.7257 -0.0425  0.1616
  137MOL    H9143883   1.243   0.016   6.728  0.2938 -0.9717 -1.9323
  137MOL    H9243884   1.126   0.141   6.898 -0.5041 -1.9184  0.3339
  137MOL    H9343885   1.325   0.208   7.263  1.4791  1.5626 -0.2615
  137MOL    H9443886   1.511   0.076   7.192 -0.0715  1.8408  0.6569
  137MOL    H9543887   1.530   0.004   6.956  2.2143  1.7723  1.9281
  137MOL    H9643888   1.392   0.218   6.678 -0.0732  0.2342  0.2014
  137MOL    H9743889   1.517   0.135   6.746 -0.7812 -1.8656  0.7207
  137MOL    C9843890   1.496   0.079   6.544  0.2573  0.6860  0.1016
  137MOL    C9943891   1.396   0.074   6.426  0.5073  0.4361  0.8530
  137MOL   C10043892   1.309   0.186   6.399  0.0491  0.3291 -0.1825
  137MOL   C10143893   1.218   0.188   6.289  0.0191 -0.3412  0.0379
  137MOL  Cl10243894   1.100   0.310   6.275  0.0179 -0.0914  0.2236
  137MOL   C10343895   1.237   0.090   6.191  0.5825 -0.1808 -0.6518
  137MOL   C10443896   1.331   8.416   6.208 -0.2338 -0.7546  0.2000
  137MOL   C10543897   1.402   8.407   6.325 -0.3269  0.1660 -0.1324
  137MOL   C10643898   1.620   0.155   6.509  0.4783  0.3874 -0.0067
  137MOL   H10743899   1.522   8.408   6.544 -1.4783  0.2512  0.5492
  137MOL   H10843900   1.305   0.267   6.471  0.6684 -0.2273  0.4938
  137MOL   H10943901   1.168   0.105   6.109 -0.8848  2.1750  0.9658
  137MOL   H11043902   1.342   8.338   6.134  0.1368  1.5982 -2.2927
  137MOL   H11143903   1.475   8.330   6.344  1.1908  1.6321  0.1449
  137MOL   H11243904   1.646   0.124   6.408 -1.5322 -0.5079 -0.2654
  137MOL   H11343905   1.609   0.262   6.491  0.0731  0.2309 -0.7199
  137MOL   C11443906   1.742   0.168   6.605 -0.9682 -0.1114 -0.4592
  137MOL   C11543907   1.779   0.027   6.660  0.8189 -0.2445  0.1750
  137MOL   C11643908   1.771   8.434   6.793 -1.1105  0.1769  0.0119
  137MOL   C11743909   1.807   8.303   6.835  0.3113  1.0809 -0.1282
  137MOL  Cl11843910   1.790   8.265   7.003 -0.5072 -0.5868  0.2228
  137MOL   C11943911   1.845   8.203   6.742 -0.0771 -0.7634  0.2768
  137MOL   C12043912   1.864   8.240   6.608 -0.5484 -0.7111 -0.3032
  137MOL   C12143913   1.827   8.368   6.569 -0.1889  0.5249  0.3936
  137MOL   C12243914   1.869   0.238   6.552  0.2749  0.3385 -0.9292
  137MOL   H12343915   1.715   0.229   6.691  0.0947 -2.7882  1.8499
  137MOL   H12443916   1.740   0.078   6.860  1.6997  0.7707  0.6910
  137MOL   H12543917   1.858   8.099   6.767 -0.9191 -1.5642 -2.4488
  137MOL   H12643918   1.884   8.161   6.538  0.2467 -0.1343 -0.7353
  137MOL   H12743919   1.840   8.393   6.465  0.9989 -1.1647  0.1174
  137MOL   H12843920   1.951   0.222   6.623  2.2888  0.2853 -3.2080
  137MOL   H12943921   1.906   0.179   6.469  0.9339 -0.2854 -0.2082
  137MOL   C13043922   1.861   0.387   6.508  0.2504 -0.0095  0.6174
  137MOL   C13143923   1.801   0.481   6.611 -0.9991  0.1414  0.2942
  137MOL   C13243924   1.880   0.517   6.721  0.1014  0.0550  0.0447
  137MOL   C13343925   1.837   0.621   6.811 -0.0147  0.0824 -0.3813
  137MOL  Cl13443926   1.950   0.680   6.930  0.3034  0.1460  0.3454
  137MOL   C13543927   1.705   0.677   6.795 -0.8085  0.6284 -0.5682
  137MOL   C13643928   1.616   0.620   6.695 -0.6333  0.2869  0.5071
  137MOL   C13743929   1.665   0.522   6.605  0.4383  0.1667  0.0813
  137MOL   C13843930   1.993   0.436   6.453  0.1694 -0.0266 -0.6940
  137MOL   H13943931   1.796   0.394   6.421  0.4994 -3.0187  0.1390
  137MOL   H14043932   1.982   0.483   6.722 -0.1478 -0.6719  0.8129
  137MOL   H14143933   1.672   0.760   6.856 -1.5379  1.6479 -2.3098
  137MOL   H14243934   1.514   0.652   6.704 -0.4351  0.3638  2.7259
  137MOL   H14343935   1.595   0.480   6.534 -0.3664 -0.3928  1.1931
  137MOL   H14443936   2.058   0.433   6.541 -0.0573  2.3741 -0.4199
  137MOL   H14543937   2.026   0.369   6.374  1.8131  1.6690 -1.4647
  137MOL   C14643938   2.008   0.570   6.382  0.0123 -0.5255 -0.8626
  137MOL   C14743939   2.152   0.597   6.337 -0.9137 -0.0304 -0.2916
  137MOL   C14843940   2.220   0.718   6.378  0.2042  0.1345 -0.2469
  137MOL   C14943941   2.348   0.742   6.323  0.0164 -0.2968 -0.1265
  137MOL  Cl15043942   2.452   0.877   6.375  0.1496  0.5380  0.0563
  137MOL   C15143943   2.404   0.648   6.238 -0.4187 -0.3610 -0.1627
  137MOL   C15243944   2.338   0.533   6.196  0.2539 -0.2810  0.0038
  137MOL   C15343945   2.209   0.512   6.241  0.0460  0.6249 -0.1951
  137MOL   C15443946   1.904   0.589   6.264 -0.4698 -0.1925  0.5087
  137MOL   H15543947   1.986   0.645   6.457 -2.5983 -2.1261  0.0452
  137MOL   H15643948   2.177   0.783   6.453  0.3357 -0.5624  0.4354
  137MOL   H15743949   2.505   0.663   6.205 -0.4300 -1.7564 -0.8687
  137MOL   H15843950   2.380   0.464   6.125  1.3485 -0.5433  0.8997
  137MOL   H15943951   2.146   0.436   6.196  0.9931 -0.6047  0.5250
  137MOL   H16043952   1.942   0.543   6.173 -0.6251  1.0397 -0.1854
  137MOL   H16143953   1.806   0.546   6.283 -0.6545 -0.7820 -1.7000
  137MOL   C16243954   1.872   0.737   6.222  0.5040 -0.2220  0.4156
  137MOL   C16343955   1.986   0.831   6.207 -0.2057 -0.5348  0.3944
  137MOL   C16443956   2.006   0.933   6.308  1.1967  0.4985  0.1211
  137MOL   C16543957   2.096   1.040   6.284  0.0423 -0.1669 -0.2295
  137MOL  Cl16643958   2.101   1.174   6.395 -0.1433 -0.1648 -0.1458
  137MOL   C16743959   2.181   1.036   6.175  0.6086 -0.5559 -0.2513
  137MOL   C16843960   2.165   0.934   6.075 -0.2954 -0.6133  0.3654
  137MOL   C16943961   2.064   0.837   6.085  0.2714  0.3331 -0.1279
  137MOL   C17043962   1.782   0.736   6.091  0.2492  0.4809  0.2860
  137MOL   H17143963   1.810   0.788   6.296 -1.3202  0.6354 -1.6329
  137MOL   H17243964   1.963   0.926   6.407 -1.7735 -0.8594 -1.1737
  137MOL   H17343965   2.265   1.102   6.161 -0.5258  0.7909 -0.8041
  137MOL   H17443966   2.231   0.949   5.991 -0.6309  2.3432  0.5803
  137MOL   H17543967   2.045   0.776   5.997 -0.2508  1.4027 -0.7625
  137MOL   H17643968   1.839   0.694   6.009 -0.7295  1.1432 -0.7469
  137MOL   H17743969   1.700   0.666   6.110 -0.6866  1.5136  0.0830
  137MOL   C17843970   1.725   0.875   6.033  1.0934  0.5324  0.0610
  137MOL   C17943971   1.649   0.857   5.900 -0.1297 -0.3212  0.2671
  137MOL   C18043972   1.523   0.801   5.901  0.7466  0.0770  0.7464
  137MOL   C18143973   1.443   0.789   5.784  0.4378 -0.3211  0.0702
  137MOL  Cl18243974   1.285   0.713   5.786 -0.1306 -0.0684  0.3537
  137MOL   C18343975   1.502   0.835   5.664  0.7896 -0.0407 -0.0054
  137MOL   C18443976   1.628   0.898   5.663 -0.1491 -0.4799 -0.1637
  137MOL   C18543977   1.706   0.899   5.774  0.0245 -0.0746  0.0545
  137MOL   C18643978   1.630   0.957   6.128 -0.1975  0.4608 -0.6981
  137MOL   H18743979   1.813   0.935   6.010  2.6431 -1.6829  0.0810
  137MOL   H18843980   1.487   0.762   5.995 -0.3009  0.9958  0.7325
  137MOL   H18943981   1.444   0.813   5.575  0.6956 -1.3607  0.3781
  137MOL   H19043982   1.673   0.935   5.572  0.5150 -3.7796 -1.2322
  137MOL   H19143983   1.795   0.959   5.764  0.0599 -0.4138 -1.9593
  137MOL   H19243984   1.548   0.990   6.064 -1.0596  2.5580  1.4016
  137MOL   H19343985   1.587   0.889   6.202  0.8863 -0.8614 -1.2787
  137MOL   C19443986   1.681   1.088   6.191  0.6506  0.3500  1.0025
  137MOL   C19543987   1.736   1.190   6.093 -0.2868  0.1712  0.1147
  137MOL   C19643988   1.850   1.259   6.133 -0.0110  0.2253  0.8083
  137MOL   C19743989   1.897   1.367   6.051  0.2684 -0.3743 -0.9427
  137MOL  Cl19843990   2.017   1.460   6.120 -0.1589  0.3430  0.4972
  137MOL   C19943991   1.837   1.399   5.930 -0.2756  0.2282 -0.0999
  137MOL   C20043992   1.724   1.325   5.885  0.4173  0.0663  0.5212
  137MOL   C20143993   1.678   1.219   5.969 -0.7072 -0.5001  0.7160
  137MOL   C20243994   1.559   1.150   6.269 -0.2792  0.1369  0.4433
  137MOL   H20343995   1.763   1.061   6.258  0.1502 -0.9107  1.1174
  137MOL   H20443996   1.898   1.224   6.223  1.7479 -0.9033 -0.5282
  137MOL   H20543997   1.872   1.489   5.882 -1.3712  1.6574  1.7098
  137MOL   H20643998   1.655   1.363   5.811 -1.2934 -0.9018  1.5727
  137MOL   H20743999   1.583   1.171   5.951  0.1734 -1.6377 -1.0547
  137MOL   H20844000   1.571   1.258   6.275 -2.8880  0.5540 -1.1302
  137MOL   H20944001   1.468   1.138   6.210 -2.5311 -1.5997  4.0899
  137MOL   C21044002   1.527   1.085   6.404  0.0947 -0.4961  0.0713
  137MOL   C21144003   1.643   1.084   6.510  0.1099 -0.2894 -0.1200
  137MOL   C21244004   1.686   1.202   6.568 -0.2053 -0.8065  0.8433
  137MOL   C21344005   1.792   1.215   6.663  0.8921 -0.3897 -0.0879
  137MOL  Cl21444006   1.859   1.365   6.724  0.0732 -0.2894  0.0206
  137MOL   C21544007   1.849   1.096   6.706  0.2582  0.6276 -0.1413
  137MOL   C21644008   1.807   0.970   6.651  0.2263 -0.3721  0.0668
  137MOL   C21744009   1.710   0.970   6.548  0.3845  0.0884 -0.9256
  137MOL   C21844010   1.397   1.131   6.473  0.7784  0.3066 -0.1799
  137MOL   H21944011   1.511   0.978   6.388 -2.6996 -0.0363 -0.5216
  137MOL   H22044012   1.637   1.291   6.532 -0.5792 -0.0031  3.2516
  137MOL   H22144013   1.935   1.088   6.770 -0.5971 -3.0990  0.6173
  137MOL   H22244014   1.852   0.876   6.679  1.3194  0.3668  0.8221
  137MOL   H22344015   1.685   0.876   6.501 -2.1248 -0.1962  0.8617
  137MOL   H22444016   1.394   1.076   6.567 -0.3898  1.0226  0.2219
  137MOL   H22544017   1.406   1.234   6.509 -1.8317 -0.6941  3.6397
  137MOL   C22644018   1.263   1.106   6.399  0.1946 -0.4500 -0.2644
  137MOL   C22744019   1.261   0.973   6.329 -0.1394 -0.2274  0.5843
  137MOL   C22844020   1.285   0.857   6.407  1.7232 -0.1381 -0.0622
  137MOL   C22944021   1.278   0.732   6.342  0.1014  0.0432  0.0461
  137MOL  Cl23044022   1.291   0.582   6.426 -0.2293  0.0212 -0.2809
  137MOL   C23144023   1.239   0.726   6.206 -0.6921 -0.4219  0.1507
  137MOL   C23244024   1.221   0.845   6.132 -0.3279 -0.2424 -0.2394
  137MOL   C23344025   1.228   0.972   6.195  0.2178 -0.1622 -0.3095
  137MOL   C23444026   1.138   1.100   6.500  0.5213  0.4874  1.7003
  137MOL   H23544027   1.257   1.187   6.327  0.8594  1.2289  1.5231
  137MOL   H23644028   1.302   0.862   6.513 -0.4768 -0.0386  0.3027
  137MOL   H23744029   1.213   0.632   6.160 -1.5079  0.7773 -1.9178
  137MOL   H23844030   1.187   0.831   6.030 -0.9137  1.4685 -0.2855
  137MOL   H23944031   1.216   1.068   6.147 -2.2237  0.5222  1.5382
  137MOL   H24044032   1.058   1.052   6.444  0.0744 -0.6123  3.2501
  137MOL   H24144033   1.165   1.027   6.576 -2.7166 -0.4590  2.0238
  137MOL   C24244034   1.074   1.238   6.552 -0.3715 -0.1556 -0.5149
  137MOL   C24344035   1.029   1.336   6.441 -0.2523  0.1012 -0.8090
  137MOL   C24444036   1.091   1.460   6.424  0.1815 -0.8676 -0.0509
  137MOL   C24544037   1.054   1.545   6.319  0.0502  0.0945  0.2581
  137MOL  Cl24644038   1.144   1.686   6.301  0.1584 -0.1183 -0.0060
  137MOL   C24744039   0.946   1.517   6.238  0.6567  0.4957 -0.2827
  137MOL   C24844040   0.867   1.401   6.263 -0.8018  0.5260 -0.2072
  137MOL   C24944041   0.913   1.312   6.364 -0.2861 -0.2176  1.0565
  137MOL   C25044042   0.968   1.217   6.659  0.0958  0.1356 -0.6725
  137MOL   H25144043   1.147   1.293   6.610 -1.2409  0.0245  0.4338
  137MOL   H25244044   1.177   1.486   6.485  1.4640 -1.3985 -1.5923
  137MOL   H25344045   0.920   1.590   6.163 -0.4146  0.3533 -0.0609
  137MOL   H25444046   0.771   1.388   6.216 -0.6989 -0.6667 -0.0937
  137MOL   H25544047   0.853   1.226   6.389 -1.1449  0.2669  0.6571
  137MOL   H25644048   0.911   1.309   6.670 -1.5192 -0.8484 -0.8052
  137MOL   H25744049   0.902   1.146   6.610  1.2910 -0.2300 -1.7729
  137MOL   C25844050   1.016   1.155   6.791  0.0326  0.0547  0.4179
  137MOL   C25944051   1.110   1.242   6.869 -0.4889 -0.4189  0.2079
  137MOL   C26044052   1.244   1.199   6.889 -0.1865 -0.1956 -0.2971
  137MOL   C26144053   1.336   1.292   6.944 -0.1243  0.3125  0.0902
  137MOL  Cl26244054   1.499   1.244   6.950 -0.2255  0.0071 -0.0608
  137MOL   C26344055   1.297   1.417   6.994  0.7268 -0.1535 -0.8353
  137MOL   C26444056   1.160   1.449   6.992  0.0644  0.5760 -0.2654
  137MOL   C26544057   1.065   1.366   6.922  0.0232  0.7115  0.1926
  137MOL   C26644058   0.898   1.108   6.883  0.4407  1.0776 -0.1775
  137MOL   H26744059   1.066   1.063   6.760 -2.3314 -1.3438  0.5910
  137MOL   H26844060   1.289   1.107   6.856 -1.8385 -0.7469 -1.0718
  137MOL   H26944061   1.351   1.499   7.037  2.1889 -1.4658 -0.1121
  137MOL   H27044062   1.125   1.542   7.034 -2.2396  0.7962 -2.5483
  137MOL   H27144063   0.961   1.395   6.913 -0.7490 -2.2355 -0.8648
  137MOL   H27244064   0.919   1.156   6.979 -0.5200  1.7635 -0.2995
  137MOL   H27344065   0.803   1.151   6.849  0.0754  0.3824 -0.0336
  137MOL   C27444066   0.890   0.962   6.901  0.1477 -0.2822 -0.3364
  137MOL   C27544067   0.874   0.890   6.769  0.2382 -0.3855  0.2866
  137MOL   C27644068   0.744   0.903   6.709 -0.3644  0.3810 -0.0366
  137MOL   C27744069   0.715   0.850   6.584  0.6365  0.7567 -0.3622
  137MOL  Cl27844070   0.559   0.888   6.518  0.2593 -0.2324  0.0765
  137MOL   C27944071   0.815   0.777   6.514  0.1586  0.0272 -0.2919
  137MOL   C28044072   0.947   0.767   6.571 -0.3784  0.1156 -0.3443
  137MOL   C28144073   0.971   0.819   6.701  0.7168  0.5033 -0.2513
  137MOL   C28244074   0.997   0.915   6.992  0.2331 -0.3290  0.2914
  137MOL   H28344075   0.798   0.944   6.957 -1.1505  2.6916 -1.4532
  137MOL   H28444076   0.668   0.969   6.748 -0.6977  1.4396 -2.3999
  137MOL   H28544077   0.798   0.738   6.415 -2.5400 -0.6399  0.3903
  137MOL   H28644078   1.027   0.713   6.522 -0.6085  1.1805 -1.9063
  137MOL   H28744079   1.070   0.811   6.743  0.3967  1.0862  0.6189
  137MOL   H28844080   1.097   0.939   6.956 -0.3498  1.2218 -0.3495
  137MOL   H28944081   0.997   0.968   7.087  1.7798 -0.8391  0.5871
  137MOL   C29044082   1.005   0.764   7.030 -0.1201 -0.1702  0.0462
  137MOL   C29144083   1.145   0.716   7.033  0.1144 -0.2398  0.4586
  137MOL   C29244084   1.184   0.605   6.955  0.2820 -0.1946  0.4357
  137MOL   C29344085   1.322   0.566   6.944 -0.4069  0.3741 -0.3737
  137MOL  Cl29444086   1.355   0.428   6.846 -0.1007  0.0340  0.2566
  137MOL   C29544087   1.422   0.638   7.012  0.2129 -0.2376  0.2458
  137MOL   C29644088   1.381   0.744   7.093  0.3692 -0.1272 -0.6776
  137MOL   C29744089   1.246   0.781   7.104 -0.7995 -0.1440 -0.0337
  137MOL   C29844090   0.934   0.743   7.166  0.0725 -0.3964  0.2472
  137MOL   H29944091   0.948   0.700   6.964 -2.3199  2.1416 -0.3547
  137MOL   H30044092   1.117   0.541   6.901 -0.6219 -1.2865  2.7966
  137MOL   H30144093   1.528   0.618   7.002  0.7449  2.8336 -0.8075
  137MOL   H30244094   1.460   0.804   7.135 -0.9393  1.5000 -0.4875
  137MOL   H30344095   1.218   0.868   7.162  0.9109  0.7871 -0.5492
  137MOL   H30444096   0.952   0.643   7.205  0.0969 -1.5539 -2.5892
  137MOL   H30544097   0.983   0.798   7.246  1.1631  1.0675 -1.3784
  137MOL   C30644098   0.783   0.764   7.168  0.8781  0.2426  0.0069
  137MOL   C30744099   0.717   0.673   7.067 -0.1968  0.6445  0.4833
  137MOL   C30844100   0.749   0.537   7.062 -0.3779 -0.5781 -0.1247
  137MOL   C30944101   0.688   0.456   6.968  0.7506  0.8670  0.2337
  137MOL  Cl31044102   0.712   0.287   6.978  0.6382  0.2484 -0.0230
  137MOL   C31144103   0.598   0.509   6.870 -0.2766 -0.4152 -0.0202
  137MOL   C31244104   0.571   0.643   6.867 -0.5183 -0.2523  0.3305
  137MOL   C31344105   0.617   0.724   6.975  0.1621  0.3279  1.0525
  137MOL   C31444106   0.736   0.738   7.305  0.3105 -0.8674 -0.0531
  137MOL   H31544107   0.748   0.865   7.149 -2.0496 -0.9061 -0.9466
  137MOL   H31644108   0.806   0.500   7.145 -2.0175  0.1155  1.3292
  137MOL   H31744109   0.554   0.436   6.804  3.1790 -1.5810 -1.1439
  137MOL   H31844110   0.502   0.675   6.790  1.3876 -1.4811 -1.9273
  137MOL   H31944111   0.586   0.827   6.978  2.2478  1.0915 -1.6451
  137MOL   H32044112   0.783   0.645   7.337  0.4700 -0.8402 -0.2091
  137MOL   H32144113   0.782   0.804   7.378  1.8820 -0.0696 -1.7365
  137MOL   H32244114   0.628   0.732   7.320  0.4277 -1.8833  0.4405
  138MOL     C144115   6.304   1.959   3.024  0.8698 -0.2107 -0.1653
  138MOL     C244116   6.451   1.931   3.005  0.3073 -0.0630 -0.7315
  138MOL     C344117   6.505   1.806   3.046  0.4197 -0.3733 -1.0078
  138MOL     C444118   6.637   1.767   3.003 -0.0623  0.2565 -1.3960
  138MOL    Cl544119   6.700   1.616   3.044  0.3654  0.0137 -0.3300
  138MOL     C644120   6.716   1.859   2.932 -0.5002 -1.0404  0.2550
  138MOL     C744121   6.663   1.987   2.901  0.3412  0.8464 -0.3941
  138MOL     C844122   6.535   2.021   2.940  0.7082  0.3687 -0.2761
  138MOL     C944123   6.222   1.963   2.893 -0.0724  0.1845  0.0211
  138MOL    H1044124   6.282   2.050   3.080 -1.1494  0.2513 -1.6803
  138MOL    H1144125   6.434   1.734   3.085 -0.8220  1.3526 -0.0308
  138MOL    H1244126   6.818   1.840   2.902 -0.3889 -1.0612  0.6420
  138MOL    H1344127   6.723   2.058   2.845 -1.2199  3.6727  1.3811
  138MOL    H1444128   6.499   2.116   2.904  0.4064  0.0578 -0.8019
  138MOL    H1544129   6.290   2.004   2.818  0.1751  0.8651  0.6213
  138MOL    H1644130   6.210   1.865   2.845 -0.3247  0.4597 -0.4907
  138MOL    H1744131   6.241   1.881   3.068 -1.6554  1.3883 -0.8644
  138MOL    C1844132   6.087   2.047   2.904  0.4154 -0.6081  0.3802
  138MOL    C1944133   6.107   2.194   2.942  0.3841 -0.4748 -0.4811
  138MOL    C2044134   6.008   2.262   3.014  0.2984 -0.4417  0.2250
  138MOL    C2144135   6.020   2.399   3.047  0.6625  0.7347 -0.0056
  138MOL   Cl2244136   5.885   2.467   3.134  0.1041  0.1110 -0.1534
  138MOL    C2344137   6.133   2.469   3.001  0.4620  0.1307 -0.0075
  138MOL    C2444138   6.228   2.407   2.918  0.2577 -0.5104 -0.0157
  138MOL    C2544139   6.216   2.269   2.885 -0.2594 -0.2527  0.1348
  138MOL    C2644140   6.002   2.037   2.776  0.6679  0.3647  0.2282
  138MOL    H2744141   6.033   1.999   2.986 -0.9924  1.1472  0.5246
  138MOL    H2844142   5.921   2.208   3.050 -0.4442  0.4305 -0.2207
  138MOL    H2944143   6.139   2.576   3.011  0.3819  0.2290 -1.0387
  138MOL    H3044144   6.300   2.470   2.868  0.2476 -0.7071 -0.2732
  138MOL    H3144145   6.289   2.226   2.818  0.5498  1.6223 -0.2229
  138MOL    H3244146   5.990   2.141   2.745  1.1304 -0.4478 -2.8458
  138MOL    H3344147   6.057   1.985   2.698 -0.8980 -0.1070 -0.5791
  138MOL    C3444148   5.859   1.984   2.794 -0.6674  0.3492 -0.2889
  138MOL    C3544149   5.777   2.050   2.689 -0.8731  0.0325 -0.3545
  138MOL    C3644150   5.809   2.043   2.551 -0.4667 -0.2132  0.1293
  138MOL    C3744151   5.732   2.114   2.458  0.3840  0.0518  0.1693
  138MOL   Cl3844152   5.766   2.081   2.286 -0.2631 -0.3729  0.3803
  138MOL    C3944153   5.616   2.185   2.494  0.2853  0.6488  0.3901
  138MOL    C4044154   5.588   2.195   2.633 -0.9088 -0.1982  0.0723
  138MOL    C4144155   5.663   2.125   2.725 -0.2804  0.4401  0.6642
  138MOL    C4244156   5.837   1.838   2.823 -1.0534 -0.3222 -0.0662
  138MOL    H4344157   5.831   2.032   2.888  0.6863 -1.6525  1.1889
  138MOL    H4444158   5.892   1.981   2.519  1.2389  0.9500  2.1608
  138MOL    H4544159   5.555   2.224   2.413  0.5341  0.5794  0.1674
  138MOL    H4644160   5.511   2.255   2.678 -0.3194 -1.8704  3.4267
  138MOL    H4744161   5.641   2.134   2.830 -0.9169 -0.6096  0.6198
  138MOL    H4844162   5.929   1.787   2.850 -0.7050  0.4250  0.1573
  138MOL    H4944163   5.764   1.824   2.903 -1.8326  0.7128 -0.5849
  138MOL    C5044164   5.785   1.749   2.712 -0.5163 -0.2883 -0.5376
  138MOL    C5144165   5.812   1.597   2.738 -0.2681 -0.5980  0.2010
  138MOL    C5244166   5.874   1.524   2.640  0.2214 -0.0243 -0.0813
  138MOL    C5344167   5.882   1.380   2.660  0.4230 -0.7438 -0.3236
  138MOL   Cl5444168   5.941   1.280   2.529  0.0633 -0.0091  0.6088
  138MOL    C5544169   5.835   1.324   2.778 -0.0670  0.3308 -0.0985
  138MOL    C5644170   5.785   1.399   2.882  0.1798 -0.3576 -0.2567
  138MOL    C5744171   5.775   1.536   2.859  0.2369 -0.0977  0.0086
  138MOL    C5844172   5.629   1.770   2.698  0.9954  0.4694  0.0257
  138MOL    H5944173   5.824   1.783   2.616  0.8074 -0.3390 -0.0200
  138MOL    H6044174   5.911   1.570   2.550 -0.7792  2.3292  0.6675
  138MOL    H6144175   5.851   1.217   2.780 -0.6439  0.2034 -1.9516
  138MOL    H6244176   5.762   1.364   2.982  0.9360  1.2283  0.4972
  138MOL    H6344177   5.739   1.583   2.949  1.4891 -0.5478  0.7451
  138MOL    H6444178   5.593   1.732   2.794  0.2107  0.0188 -0.4407
  138MOL    H6544179   5.605   1.876   2.705  2.8426  0.8083  1.9402
  138MOL    C6644180   5.549   1.700   2.593 -0.5130  0.1446  0.5509
  138MOL    C6744181   5.403   1.720   2.627  0.2668 -0.2059  0.0637
  138MOL    C6844182   5.335   1.613   2.687 -0.0256 -0.3600 -0.1327
  138MOL    C6944183   5.203   1.626   2.741 -0.0016  0.7330 -0.2433
  138MOL   Cl7044184   5.125   1.498   2.823  0.1234  0.1024 -0.4448
  138MOL    C7144185   5.140   1.749   2.727 -0.3082 -0.0501  0.4058
  138MOL    C7244186   5.205   1.855   2.666  0.8068 -1.1371  0.3560
  138MOL    C7344187   5.337   1.846   2.620 -0.7499 -0.9398  0.6748
  138MOL    C7444188   5.587   1.740   2.453 -0.3240  0.5318 -0.2328
  138MOL    H7544189   5.572   1.595   2.614 -2.7150 -0.8498 -1.7279
  138MOL    H7644190   5.383   1.519   2.711 -1.1485 -1.1418 -0.9045
  138MOL    H7744191   5.034   1.754   2.748 -0.2671  2.1032  0.1585
  138MOL    H7844192   5.171   1.957   2.660 -0.6136 -1.4355  2.9584
  138MOL    H7944193   5.392   1.930   2.580 -1.0697 -0.6167  0.9168
  138MOL    H8044194   5.594   1.849   2.450  3.5779  0.3823  0.3589
  138MOL    H8144195   5.688   1.705   2.431 -0.7492 -1.8467  1.4790
  138MOL    C8244196   5.504   1.679   2.335  0.0614  0.5582 -0.3938
  138MOL    C8344197   5.574   1.722   2.209 -1.0117  0.5736  0.4052
  138MOL    C8444198   5.526   1.837   2.143 -0.0322 -0.8249 -0.4058
  138MOL    C8544199   5.595   1.876   2.026  0.3396  0.5819 -0.2412
  138MOL   Cl8644200   5.535   2.004   1.935  0.1305  0.0217  0.0149
  138MOL    C8744201   5.707   1.815   1.984 -0.0706  0.1802  0.8002
  138MOL    C8844202   5.763   1.703   2.057  0.0234 -0.4975  0.3879
  138MOL    C8944203   5.694   1.653   2.170 -0.4106 -0.5726  0.0893
  138MOL    C9044204   5.485   1.520   2.345 -0.4871  0.5588 -0.2880
  138MOL    H9144205   5.406   1.724   2.350 -0.3264 -0.5907  0.6364
  138MOL    H9244206   5.443   1.895   2.181  2.0177  0.3186  2.5163
  138MOL    H9344207   5.762   1.853   1.898 -0.7319 -0.5614  0.0398
  138MOL    H9444208   5.857   1.652   2.039 -0.7221 -0.9175 -2.6698
  138MOL    H9544209   5.743   1.584   2.238 -0.9660  0.0400  1.1250
  138MOL    H9644210   5.586   1.481   2.355 -1.3114 -1.6014 -0.2092
  138MOL    H9744211   5.441   1.489   2.440 -0.9124  2.0355  0.0090
  138MOL    C9844212   5.404   1.440   2.240 -0.4444 -0.2925 -0.0170
  138MOL    C9944213   5.256   1.471   2.260  0.1189  0.2313 -0.0844
  138MOL   C10044214   5.174   1.372   2.320 -0.2576 -0.0293  0.4046
  138MOL   C10144215   5.035   1.399   2.333  0.7692 -0.2785  0.1613
  138MOL  Cl10244216   4.931   1.272   2.394 -0.1334  0.5851  0.1877
  138MOL   C10344217   4.978   1.518   2.291  0.1592 -0.2678  0.0175
  138MOL   C10444218   5.059   1.611   2.230 -0.0133 -0.4814 -0.0502
  138MOL   C10544219   5.197   1.587   2.214 -0.6347 -1.3236 -0.9437
  138MOL   C10644220   5.434   1.446   2.086 -0.3238 -0.1021 -0.4760
  138MOL   H10744221   5.432   1.339   2.269  2.6594  0.9423  1.5733
  138MOL   H10844222   5.216   1.284   2.365  1.6316  0.9066  0.5220
  138MOL   H10944223   4.871   1.532   2.302  0.4921  1.9451  0.6769
  138MOL   H11044224   5.013   1.701   2.193 -0.8070 -0.6572  0.5113
  138MOL   H11144225   5.261   1.662   2.170  1.4762 -0.8186  2.7725
  138MOL   H11244226   5.437   1.550   2.052 -0.2328 -0.2687 -0.9828
  138MOL   H11344227   5.527   1.394   2.063 -0.0704 -0.1383  0.6240
  138MOL   C11444228   5.341   1.370   1.996  0.6393  0.1128  1.0570
  138MOL   C11544229   5.295   1.227   2.042 -0.1697  0.0637  0.1737
  138MOL   C11644230   5.156   1.191   2.047 -0.4607  0.6074 -0.2661
  138MOL   C11744231   5.109   1.075   2.105  0.1739  0.2783 -0.4735
  138MOL  Cl11844232   4.942   1.040   2.120 -0.2812  0.3446  0.3068
  138MOL   C11944233   5.203   0.996   2.168  0.2109  0.2316  0.1295
  138MOL   C12044234   5.337   1.029   2.169  0.0084  0.3870  0.2388
  138MOL   C12144235   5.388   1.136   2.095  0.8430 -0.0527  0.5294
  138MOL   C12244236   5.236   1.454   1.914  0.0158 -0.3693  0.4318
  138MOL   H12344237   5.404   1.339   1.912  0.9425 -1.4381  1.8299
  138MOL   H12444238   5.087   1.263   2.008  0.0882  1.2091 -0.1345
  138MOL   H12544239   5.179   0.904   2.220 -0.0024 -0.8826 -1.8594
  138MOL   H12644240   5.407   0.967   2.222 -0.8105  0.4862  1.4493
  138MOL   H12744241   5.491   1.166   2.107  1.0617 -0.8223  0.5762
  138MOL   H12844242   5.203   1.385   1.837 -0.8628  0.3285  0.1771
  138MOL   H12944243   5.150   1.478   1.977  0.4430  0.1462  0.8299
  138MOL   C13044244   5.275   1.586   1.840 -0.5820  0.6664  0.1407
  138MOL   C13144245   5.387   1.564   1.737  0.0261 -0.2717 -0.3547
  138MOL   C13244246   5.374   1.477   1.626  0.6430  0.0866 -0.0268
  138MOL   C13344247   5.472   1.478   1.523 -0.9260 -0.2404 -0.0028
  138MOL  Cl13444248   5.456   1.369   1.387  0.2821  0.0676  0.0231
  138MOL   C13544249   5.594   1.551   1.537  0.3205 -0.1602 -0.6948
  138MOL   C13644250   5.603   1.644   1.645  0.4335  0.1164 -0.3504
  138MOL   C13744251   5.500   1.654   1.741  0.3073 -0.3162 -0.2464
  138MOL   C13844252   5.153   1.658   1.774  0.2611 -0.0834  0.4833
  138MOL   H13944253   5.310   1.651   1.920  1.4345  0.9290 -0.9339
  138MOL   H14044254   5.285   1.415   1.616 -0.3135  1.0795  2.1083
  138MOL   H14144255   5.667   1.549   1.457 -0.6912 -2.1526 -1.6060
  138MOL   H14244256   5.681   1.719   1.656 -1.0345  1.7772 -1.0191
  138MOL   H14344257   5.505   1.726   1.821  0.6411 -0.8060  0.1714
  138MOL   H14444258   5.101   1.594   1.703  0.5021  1.5311 -1.1821
  138MOL   H14544259   5.073   1.676   1.847  0.5180 -0.1419  0.7822
  138MOL   C14644260   5.185   1.796   1.696 -0.5761 -0.6566  0.1702
  138MOL   C14744261   5.153   1.787   1.549  0.0740  0.4090  0.3108
  138MOL   C14844262   5.250   1.780   1.448  0.6049  0.0009  0.1650
  138MOL   C14944263   5.212   1.761   1.312 -0.0589  0.4039 -0.4633
  138MOL  Cl15044264   5.333   1.743   1.189  0.2475  0.5142 -0.1897
  138MOL   C15144265   5.075   1.761   1.277  0.3232 -0.2306 -0.3298
  138MOL   C15244266   4.984   1.760   1.385 -0.3508 -0.9481 -0.6476
  138MOL   C15344267   5.021   1.777   1.514  0.4059  0.8919  0.0827
  138MOL   C15444268   5.124   1.919   1.776  0.1378  0.0762  0.6467
  138MOL   H15544269   5.293   1.809   1.698 -0.1291 -3.1318 -3.5380
  138MOL   H15644270   5.355   1.779   1.473  0.5820 -3.5154  0.4287
  138MOL   H15744271   5.032   1.743   1.180  0.4263  0.3113 -0.4755
  138MOL   H15844272   4.882   1.746   1.353 -0.2059 -0.6613 -1.2352
  138MOL   H15944273   4.941   1.772   1.586 -0.6321  2.1121 -0.9570
  138MOL   H16044274   5.019   1.894   1.789  0.4488 -0.8516  1.4461
  138MOL   H16144275   5.166   1.922   1.876  0.0741  1.6669  0.6267
  138MOL   C16244276   5.145   2.053   1.702 -0.6597  0.2957 -0.1178
  138MOL   C16344277   5.048   2.164   1.735  0.7288  0.7351 -0.0408
  138MOL   C16444278   5.002   2.182   1.868  1.0283 -0.4120  0.0249
  138MOL   C16544279   4.917   2.290   1.898  0.0995  0.1850 -0.4127
  138MOL  Cl16644280   4.881   2.327   2.060 -0.0882  0.2309  0.0072
  138MOL   C16744281   4.877   2.386   1.796  0.1812 -0.9292 -0.1863
  138MOL   C16844282   4.921   2.363   1.664  0.3308  0.3035 -0.2185
  138MOL   C16944283   4.996   2.252   1.630 -0.8553 -0.5207  0.1550
  138MOL   C17044284   5.288   2.103   1.724 -1.0011  0.0424  0.0368
  138MOL   H17144285   5.120   2.039   1.597 -0.9632  1.6013 -0.2326
  138MOL   H17244286   5.035   2.115   1.946  1.7277  1.3229  1.2520
  138MOL   H17344287   4.814   2.471   1.820  0.6573 -0.5477 -0.2756
  138MOL   H17444288   4.892   2.423   1.580  0.6045  0.7576  0.0047
  138MOL   H17544289   5.044   2.236   1.535  0.2819  0.5909  0.5239
  138MOL   H17644290   5.312   2.150   1.819 -3.1844  1.6877 -0.2075
  138MOL   H17744291   5.353   2.016   1.731 -0.1257  0.7729  1.0580
  138MOL   C17844292   5.347   2.176   1.603  0.3182 -0.1052  0.2713
  138MOL   C17944293   5.390   2.322   1.649  0.0426  0.6540 -0.1284
  138MOL   C18044294   5.342   2.432   1.578 -0.2114 -0.3391  0.3051
  138MOL   C18144295   5.398   2.559   1.596  0.2220 -0.0190  0.0349
  138MOL  Cl18244296   5.353   2.690   1.491  0.0714 -0.5157  0.2338
  138MOL   C18344297   5.496   2.582   1.692  0.1342 -0.6712 -0.0776
  138MOL   C18444298   5.540   2.471   1.772  0.7008  0.2038 -0.0617
  138MOL   C18544299   5.494   2.344   1.745 -0.5799  0.2878 -0.2986
  138MOL   C18644300   5.464   2.099   1.537 -0.5902 -0.4174 -0.6025
  138MOL   H18744301   5.262   2.174   1.535  0.2861  0.5542  0.2871
  138MOL   H18844302   5.256   2.410   1.517 -0.4526 -1.3888  1.0240
  138MOL   H18944303   5.539   2.679   1.713 -2.5373  0.2858  1.0509
  138MOL   H19044304   5.622   2.479   1.841  0.9435  0.7371 -0.4011
  138MOL   H19144305   5.531   2.265   1.810 -2.6753 -1.6028 -1.3446
  138MOL   H19244306   5.540   2.088   1.614 -1.6236  2.8406  0.9944
  138MOL   H19344307   5.431   1.998   1.515 -0.3511 -0.7366  0.4752
  138MOL   C19444308   5.531   2.168   1.414  0.9959 -0.3238  0.1793
  138MOL   C19544309   5.662   2.101   1.379 -0.1382  0.7114  0.4344
  138MOL   C19644310   5.654   1.968   1.334 -0.0608 -0.1547 -0.1775
  138MOL   C19744311   5.770   1.896   1.309  0.3018 -0.2205 -0.1337
  138MOL  Cl19844312   5.749   1.732   1.266  0.1435  0.0524  0.2025
  138MOL   C19944313   5.897   1.958   1.328  0.0995  0.0652  0.9641
  138MOL   C20044314   5.902   2.092   1.359 -0.1500 -0.3306  0.4763
  138MOL   C20144315   5.781   2.168   1.383 -0.4945  0.5507 -0.5782
  138MOL   C20244316   5.430   2.170   1.295 -0.1445  0.7846  0.6851
  138MOL   H20344317   5.561   2.269   1.442 -1.9924  0.5887  0.2765
  138MOL   H20444318   5.555   1.927   1.345  0.3917 -1.6060 -1.2641
  138MOL   H20544319   5.987   1.899   1.325  0.3998  0.4740  1.7465
  138MOL   H20644320   5.995   2.147   1.357  0.3494 -1.1145  1.6905
  138MOL   H20744321   5.776   2.275   1.388 -0.2849  0.5785 -0.9677
  138MOL   H20844322   5.382   2.072   1.299  1.7549 -0.1589  1.3217
  138MOL   H20944323   5.345   2.237   1.303 -0.9590 -0.1197 -0.2310
  138MOL   C21044324   5.487   2.187   1.151 -0.5389  0.1223 -0.1589
  138MOL   C21144325   5.380   2.162   1.053 -0.0084  0.1193 -0.6409
  138MOL   C21244326   5.264   2.245   1.040 -0.5635 -0.2845 -0.2963
  138MOL   C21344327   5.159   2.223   0.950 -0.1289 -0.2314 -0.0341
  138MOL  Cl21444328   5.022   2.323   0.951 -0.3660 -0.0656  0.1123
  138MOL   C21544329   5.174   2.120   0.859 -0.3893 -0.3931  1.0201
  138MOL   C21644330   5.286   2.039   0.861 -0.2549  0.2821 -0.4376
  138MOL   C21744331   5.388   2.053   0.965 -0.3752 -0.5010  0.5092
  138MOL   C21844332   5.549   2.333   1.140 -0.4041  0.2066  0.1456
  138MOL   H21944333   5.566   2.115   1.129 -0.8335  0.0660 -1.0397
  138MOL   H22044334   5.255   2.329   1.107 -0.6119 -1.1147  0.7600
  138MOL   H22144335   5.099   2.090   0.788  0.8688 -3.0529  0.7244
  138MOL   H22244336   5.275   1.949   0.803 -0.7170  0.9750 -1.4491
  138MOL   H22344337   5.482   2.001   0.968  0.2998  0.7310  1.2789
  138MOL   H22444338   5.465   2.403   1.140 -1.3446 -0.9060 -0.2013
  138MOL   H22544339   5.606   2.372   1.224  2.3140 -0.8252 -1.1445
  138MOL   C22644340   5.650   2.341   1.024  0.1169  0.3379 -0.3427
  138MOL   C22744341   5.629   2.470   0.951 -0.2226  0.1198 -0.0662
  138MOL   C22844342   5.582   2.456   0.819 -0.1752  0.6473  0.1544
  138MOL   C22944343   5.572   2.572   0.739  0.1178 -0.1770 -0.2231
  138MOL  Cl23044344   5.507   2.549   0.578 -0.0183 -0.1429  0.3775
  138MOL   C23144345   5.599   2.699   0.785  0.5902  0.5253 -0.0554
  138MOL   C23244346   5.645   2.709   0.920 -0.2634 -0.0715  0.0245
  138MOL   C23344347   5.655   2.599   1.006 -0.2871  0.1975  0.1197
  138MOL   C23444348   5.797   2.337   1.071 -0.7610 -0.0809 -0.2495
  138MOL   H23544349   5.641   2.255   0.958  0.3321  0.6919 -0.8362
  138MOL   H23644350   5.574   2.357   0.776  2.0518  0.6944 -0.4431
  138MOL   H23744351   5.593   2.790   0.728 -0.5055 -0.4418 -1.5549
  138MOL   H23844352   5.651   2.804   0.971 -1.3101  0.2551 -0.4332
  138MOL   H23944353   5.690   2.616   1.107 -0.8495  0.7644  0.2168
  138MOL   H24044354   5.809   2.411   1.150 -2.1259 -1.9537  1.7523
  138MOL   H24144355   5.820   2.235   1.102  0.4087 -0.1411 -1.2787
  138MOL   C24244356   5.909   2.364   0.964  0.3080  0.7531  0.0089
  138MOL   C24344357   6.045   2.388   1.030  0.2000  0.9671  0.0502
  138MOL   C24444358   6.102   2.306   1.132  0.6341  0.8362  0.1539
  138MOL   C24544359   6.213   2.348   1.207  0.1979 -0.4526  0.3164
  138MOL  Cl24644360   6.271   2.258   1.340 -0.7731  0.0094  0.0152
  138MOL   C24744361   6.279   2.467   1.166 -0.6244 -0.7823  0.6532
  138MOL   C24844362   6.233   2.543   1.057  0.2619 -0.9079 -0.3569
  138MOL   C24944363   6.118   2.502   0.988 -0.1279  0.1304  0.0630
  138MOL   C25044364   5.916   2.278   0.839 -0.1145 -0.1247  0.0029
  138MOL   H25144365   5.883   2.463   0.925  0.3385  1.0322  0.6860
  138MOL   H25244366   6.039   2.223   1.159 -0.3689  1.6661  0.3816
  138MOL   H25344367   6.362   2.508   1.222  0.4669 -0.0145 -1.4649
  138MOL   H25444368   6.283   2.634   1.027 -1.8612 -0.1272 -1.6781
  138MOL   H25544369   6.082   2.559   0.904 -1.0697 -2.1684 -1.1477
  138MOL   H25644370   5.811   2.261   0.814 -0.5648  0.5405  1.4015
  138MOL   H25744371   5.952   2.329   0.750 -0.8199  1.0966  0.4188
  138MOL   C25844372   5.980   2.137   0.847 -0.0716  0.1128 -0.3441
  138MOL   C25944373   5.880   2.027   0.826 -0.3475 -0.6531 -0.7988
  138MOL   C26044374   5.807   2.022   0.710  0.0078 -1.3253  0.0872
  138MOL   C26144375   5.708   1.926   0.693 -0.8501  0.3923  0.1391
  138MOL  Cl26244376   5.600   1.931   0.564  0.0282  0.1155  0.0089
  138MOL   C26344377   5.690   1.825   0.785 -0.5432  0.0702 -0.2368
  138MOL   C26444378   5.764   1.830   0.903  0.0933  0.0043 -1.1485
  138MOL   C26544379   5.852   1.933   0.930 -0.3640 -0.7708 -0.0090
  138MOL   C26644380   6.098   2.127   0.744 -0.3798 -0.1874  0.2959
  138MOL   H26744381   6.014   2.112   0.948  2.1119  2.3327 -0.4802
  138MOL   H26844382   5.820   2.095   0.631  0.3461 -1.0175  0.4266
  138MOL   H26944383   5.621   1.742   0.779 -0.3703 -0.3075  2.4143
  138MOL   H27044384   5.750   1.760   0.985  2.6675 -0.3342 -0.9734
  138MOL   H27144385   5.901   1.936   1.027  0.6919 -0.1900 -0.5548
  138MOL   H27244386   6.058   2.129   0.643  0.7969  0.9812 -0.1687
  138MOL   H27344387   6.155   2.220   0.746 -1.7847  0.7356 -1.2692
  138MOL   C27444388   6.186   1.997   0.742  0.0618  0.1145 -0.1365
  138MOL   C27544389   6.297   2.015   0.641 -0.4053  0.0118 -0.4207
  138MOL   C27644390   6.332   1.911   0.561  0.2980 -1.4938 -0.4003
  138MOL   C27744391   6.420   1.923   0.455  0.2442 -0.5199  0.3705
  138MOL  Cl27844392   6.469   1.791   0.352 -0.0539  0.1697 -0.1662
  138MOL   C27944393   6.482   2.048   0.432  0.0673  0.6281 -0.0511
  138MOL   C28044394   6.454   2.157   0.515  0.0420 -0.3268  0.6466
  138MOL   C28144395   6.367   2.140   0.622 -0.9303 -0.4797  0.2717
  138MOL   C28244396   6.245   1.968   0.891 -0.4986  0.4283  0.4032
  138MOL   H28344397   6.125   1.918   0.698  0.0760 -0.7177  1.3037
  138MOL   H28444398   6.292   1.812   0.575 -1.4841 -1.3357 -3.8958
  138MOL   H28544399   6.543   2.069   0.346 -0.0946 -0.5099 -0.4606
  138MOL   H28644400   6.487   2.257   0.492 -1.6367  0.0043 -0.4154
  138MOL   H28744401   6.337   2.231   0.673  2.2803  0.0618  1.3001
  138MOL   H28844402   6.337   2.022   0.912 -0.4503  0.3317  0.4357
  138MOL   H28944403   6.185   2.012   0.971  0.6976  3.1072 -0.1078
  138MOL   C29044404   6.265   1.816   0.909  0.1485 -0.4649 -0.1906
  138MOL   C29144405   6.354   1.791   1.031 -0.7787 -0.3594  0.0935
  138MOL   C29244406   6.306   1.803   1.156  0.5054 -0.0013 -0.4401
  138MOL   C29344407   6.389   1.798   1.267  0.7941 -0.2115 -0.0564
  138MOL  Cl29444408   6.316   1.803   1.423 -0.1033  0.0720  0.4595
  138MOL   C29544409   6.528   1.772   1.253 -0.0443 -0.0329 -0.2227
  138MOL   C29644410   6.579   1.754   1.119  0.5711 -0.1268 -0.5385
  138MOL   C29744411   6.489   1.766   1.009 -0.0853  0.0594 -0.1129
  138MOL   C29844412   6.131   1.740   0.913 -0.4811  0.2064 -0.5195
  138MOL   H29944413   6.315   1.782   0.819  1.6130  2.6734 -0.6557
  138MOL   H30044414   6.202   1.826   1.176  0.8226 -0.7441  2.3410
  138MOL   H30144415   6.594   1.764   1.338  1.0515  1.9374 -0.8755
  138MOL   H30244416   6.683   1.735   1.099  0.3559 -1.6058 -0.3588
  138MOL   H30344417   6.526   1.748   0.908 -0.3000  1.2978 -0.4085
  138MOL   H30444418   6.071   1.761   1.002 -0.9837 -1.1557 -0.5282
  138MOL   H30544419   6.070   1.775   0.829 -0.9221 -0.4927 -0.4962
  138MOL   C30644420   6.138   1.585   0.897 -0.4995 -0.0231 -0.1017
  138MOL   C30744421   6.173   1.516   1.029  0.2107 -0.5594 -0.6271
  138MOL   C30844422   6.094   1.543   1.142  0.2774 -0.2937 -0.2811
  138MOL   C30944423   6.126   1.497   1.269  0.1406  0.3749  0.3985
  138MOL  Cl31044424   6.017   1.526   1.397 -0.3184 -0.0093 -0.0975
  138MOL   C31144425   6.252   1.428   1.288 -0.0954 -0.3990  0.1495
  138MOL   C31244426   6.333   1.402   1.176  0.1113  0.1287  0.6943
  138MOL   C31344427   6.291   1.444   1.050  0.5883  0.6324  0.1858
  138MOL   C31444428   6.019   1.513   0.840  0.1845 -0.0548  0.1373
  138MOL   H31544429   6.219   1.558   0.829 -0.3025  1.8456 -0.6488
  138MOL   H31644430   6.009   1.608   1.131  0.2616 -0.6725 -2.7942
  138MOL   H31744431   6.287   1.398   1.385  1.1650  1.7007  0.3703
  138MOL   H31844432   6.417   1.334   1.177 -0.3618 -0.4877 -0.3666
  138MOL   H31944433   6.352   1.441   0.961  1.0161  1.6938  0.4331
  138MOL   H32044434   6.000   1.545   0.737 -2.4794 -0.1207  0.5625
  138MOL   H32144435   6.036   1.407   0.822 -0.4872  0.0715 -1.3036
  138MOL   H32244436   5.926   1.534   0.893 -0.0111 -1.1281  0.2338
  139MOL     C144437   2.784   8.363   4.638 -0.3719  0.2884  0.4344
  139MOL     C244438   2.913   8.333   4.700 -0.2804  0.1422 -0.1238
  139MOL     C344439   2.997   0.004   4.750  0.2731  0.0440  0.5064
  139MOL     C444440   3.126   8.411   4.794 -0.0457  0.3080 -0.5259
  139MOL    Cl544441   3.242   0.101   4.829 -0.0044 -0.3000 -0.2513
  139MOL     C644442   3.163   8.274   4.807  0.5010  0.9470 -1.0797
  139MOL     C744443   3.073   8.169   4.776 -0.6317  0.6341  0.2120
  139MOL     C844444   2.954   8.201   4.722 -0.4250 -0.0847 -0.6615
  139MOL     C944445   2.791   8.411   4.490  0.2919 -0.0654  0.3774
  139MOL    H1044446   2.736   0.008   4.695 -1.1635  0.6613 -0.7346
  139MOL    H1144447   2.961   0.104   4.730  0.5864 -0.1406 -1.0250
  139MOL    H1244448   3.264   8.243   4.831 -0.4561 -2.1307 -0.8521
  139MOL    H1344449   3.097   8.066   4.796  2.1606  1.9998  4.8033
  139MOL    H1444450   2.882   8.121   4.708  1.7503 -2.0943 -0.7564
  139MOL    H1544451   2.698   0.014   4.450  0.5335  1.0488  0.8555
  139MOL    H1644452   2.848   0.068   4.503 -1.3087  1.3251 -2.2073
  139MOL    H1744453   2.717   8.277   4.643 -2.5226  1.7277 -2.1419
  139MOL    C1844454   2.859   8.316   4.387 -0.5585  0.6471 -0.0748
  139MOL    C1944455   2.793   8.183   4.370  0.3715 -0.4839  0.1240
  139MOL    C2044456   2.874   8.073   4.397 -0.1657 -0.4145 -0.2947
  139MOL    C2144457   2.821   7.946   4.368 -0.2100  0.1256  0.0828
  139MOL   Cl2244458   2.917   7.806   4.380  0.0100 -0.0388  0.1765
  139MOL    C2344459   2.686   7.931   4.315  0.2159 -0.5432  0.9084
  139MOL    C2444460   2.608   8.047   4.288 -0.4479 -0.4833  0.1578
  139MOL    C2544461   2.665   8.171   4.317  0.5270  0.5816 -0.8666
  139MOL    C2644462   2.907   8.389   4.256 -0.5116  0.1433  0.3727
  139MOL    H2744463   2.957   8.295   4.430 -0.4727 -0.1515 -0.6433
  139MOL    H2844464   2.975   8.080   4.434 -0.5406 -1.0269  0.8866
  139MOL    H2944465   2.642   7.836   4.288 -0.9890  0.3384 -0.3596
  139MOL    H3044466   2.509   8.024   4.251  0.3622 -1.3212 -1.5490
  139MOL    H3144467   2.601   8.258   4.310  0.5045  0.6572  0.2086
  139MOL    H3244468   3.000   0.006   4.280 -0.6197  0.5631 -0.1036
  139MOL    H3344469   2.959   8.324   4.186  2.3248 -0.0629  2.5414
  139MOL    C3444470   2.816   0.053   4.187  0.3027 -0.2327  0.6269
  139MOL    C3544471   2.847   0.199   4.227  0.1289 -0.4536 -0.0077
  139MOL    C3644472   2.977   0.250   4.210  0.5188  0.5129  0.8298
  139MOL    C3744473   3.004   0.390   4.243 -0.0003 -0.6713 -0.2354
  139MOL   Cl3844474   3.160   0.460   4.205 -0.0470 -0.3536 -0.3407
  139MOL    C3944475   2.903   0.468   4.307  0.6144 -0.6054 -0.9779
  139MOL    C4044476   2.776   0.414   4.318 -0.5856  0.4291 -0.1107
  139MOL    C4144477   2.746   0.280   4.281 -0.1577  0.2882 -0.6575
  139MOL    C4244478   2.792   0.040   4.031  0.0102  0.6851 -0.2354
  139MOL    H4344479   2.714   0.047   4.226  0.5504  0.4972  1.3937
  139MOL    H4444480   3.047   0.185   4.159  0.1099  0.4879  0.2864
  139MOL    H4544481   2.919   0.571   4.336 -3.3357 -0.1439 -0.1767
  139MOL    H4644482   2.694   0.476   4.352  0.0466  0.4955  1.3096
  139MOL    H4744483   2.644   0.249   4.298 -1.2971  3.6740 -1.0117
  139MOL    H4844484   2.769   0.142   4.000  1.8810  0.8149 -1.2707
  139MOL    H4944485   2.886   0.030   3.977  1.1900  2.1296  1.4887
  139MOL    C5044486   2.683   8.374   3.972 -0.0687  0.9054 -0.1409
  139MOL    C5144487   2.545   8.420   4.004 -0.0792  0.2831  0.0236
  139MOL    C5244488   2.498   0.105   3.945  0.2283  0.2509 -0.0959
  139MOL    C5344489   2.366   0.152   3.955 -0.3245  0.0356 -0.0006
  139MOL   Cl5444490   2.317   0.292   3.859 -0.1246  0.2260 -0.1806
  139MOL    C5544491   2.280   0.085   4.049  0.3526 -0.3877 -0.5360
  139MOL    C5644492   2.318   8.390   4.092 -0.1245 -0.1819 -0.8019
  139MOL    C5744493   2.448   8.342   4.067  0.0272 -0.4772  0.4266
  139MOL    C5844494   2.702   8.356   3.824  0.1437 -0.2430  0.0164
  139MOL    H5944495   2.680   8.281   4.029  0.7172  1.6249  1.0986
  139MOL    H6044496   2.558   0.165   3.878  0.0924  1.2785  0.6782
  139MOL    H6144497   2.184   0.128   4.073  0.7387 -0.6607  1.5999
  139MOL    H6244498   2.251   8.340   4.160 -3.6112  1.9705 -2.5058
  139MOL    H6344499   2.476   8.246   4.106  0.8403 -0.7738 -0.8682
  139MOL    H6444500   2.602   8.319   3.801 -1.0749  3.1813 -0.5461
  139MOL    H6544501   2.709   0.017   3.773  1.2669  0.1540  0.9020
  139MOL    C6644502   2.812   8.266   3.775  0.0272  0.0662  0.2338
  139MOL    C6744503   2.815   8.127   3.859 -0.0248 -0.0601  0.8677
  139MOL    C6844504   2.705   8.043   3.865 -0.0295  0.1688 -0.8173
  139MOL    C6944505   2.718   7.917   3.937  0.4879  0.3707  0.5712
  139MOL   Cl7044506   2.584   7.807   3.942 -0.1642  0.2138  0.0171
  139MOL    C7144507   2.839   7.889   4.012  0.1475  0.4717  0.1341
  139MOL    C7244508   2.945   7.981   4.010 -0.3968 -0.8148  0.2076
  139MOL    C7344509   2.934   8.095   3.931 -0.5559 -0.2303  0.0173
  139MOL    C7444510   2.807   8.254   3.626 -0.3308  0.0837  0.9718
  139MOL    H7544511   2.906   8.317   3.800 -1.2000  2.6417 -0.2634
  139MOL    H7644512   2.611   8.067   3.819 -0.7231 -0.1758  0.4037
  139MOL    H7744513   2.843   7.792   4.060 -3.9539  1.6543  3.2073
  139MOL    H7844514   3.037   7.962   4.064 -0.2942 -1.8978 -0.3405
  139MOL    H7944515   3.021   8.160   3.935 -0.1632 -0.8543  1.8643
  139MOL    H8044516   2.855   8.161   3.596 -0.9082 -0.8210  2.7652
  139MOL    H8144517   2.704   8.238   3.595 -0.1692  1.3562 -0.2642
  139MOL    C8244518   2.872   8.368   3.547 -0.3900  0.4255  0.1604
  139MOL    C8344519   3.020   8.392   3.589  0.1850  0.0689  0.7924
  139MOL    C8444520   3.094   8.280   3.617 -0.3209 -0.8319 -0.3520
  139MOL    C8544521   3.238   8.287   3.627  0.0478 -0.6146  0.4333
  139MOL   Cl8644522   3.339   8.150   3.636  0.0220  0.0456 -0.0553
  139MOL    C8744523   3.301   8.411   3.626 -0.3044 -0.4609 -0.0381
  139MOL    C8844524   3.223   0.093   3.599  0.2520  0.1619 -0.4049
  139MOL    C8944525   3.082   0.083   3.590  0.3368  0.4689 -0.3027
  139MOL    C9044526   2.853   8.345   3.390 -0.2564 -1.1860 -0.3412
  139MOL    H9144527   2.825   0.024   3.582  1.7441  2.5706 -2.3765
  139MOL    H9244528   3.050   8.184   3.599 -3.3148  0.5108 -0.4880
  139MOL    H9344529   3.407   8.428   3.627 -0.3070 -0.3958  2.6255
  139MOL    H9444530   3.276   0.185   3.577  1.5958 -0.9657 -2.0397
  139MOL    H9544531   3.014   0.163   3.563 -1.6869 -0.3774  2.0719
  139MOL    H9644532   2.902   8.422   3.331 -3.2900  1.1367  0.0469
  139MOL    H9744533   2.918   8.262   3.363  2.7464  1.2178 -0.7202
  139MOL    C9844534   2.713   8.330   3.322  0.3006 -0.2435 -0.0346
  139MOL    C9944535   2.599   8.426   3.372  0.6586 -0.5631 -0.0123
  139MOL   C10044536   2.461   8.390   3.363 -0.0479  0.9404 -0.1891
  139MOL   C10144537   2.359   0.046   3.401 -0.0155  0.1887  0.0229
  139MOL  Cl10244538   2.197   0.009   3.380 -0.4056 -0.2070 -0.0890
  139MOL   C10344539   2.397   0.172   3.444  0.0935  0.2063  0.3998
  139MOL   C10444540   2.534   0.214   3.448  0.4938  0.2016 -0.6342
  139MOL   C10544541   2.629   0.122   3.415 -0.0863  0.4392  1.0303
  139MOL   C10644542   2.729   8.319   3.166  0.6514  0.2766  0.1797
  139MOL   H10744543   2.668   8.238   3.359  0.3681 -0.6755 -1.0058
  139MOL   H10844544   2.422   8.296   3.327 -1.2438  0.8196  1.3713
  139MOL   H10944545   2.326   0.248   3.474 -1.0548 -0.3920 -0.7677
  139MOL   H11044546   2.564   0.313   3.481  2.0603 -0.1064 -1.0995
  139MOL   H11144547   2.733   0.151   3.413  0.0704 -0.1485 -0.0535
  139MOL   H11244548   2.827   8.279   3.141 -0.2360 -1.2366 -0.9483
  139MOL   H11344549   2.672   8.231   3.136 -0.2892  0.4934  1.2578
  139MOL   C11444550   2.683   0.001   3.078 -0.1089  0.5856  0.2313
  139MOL   C11544551   2.766   0.123   3.101 -0.4309 -0.7129  0.0673
  139MOL   C11644552   2.904   0.114   3.090  0.0706 -0.4065  0.0522
  139MOL   C11744553   2.987   0.225   3.117  0.2931 -0.1613  0.3137
  139MOL  Cl11844554   3.153   0.223   3.086 -0.0124 -0.2658  0.2059
  139MOL   C11944555   2.934   0.344   3.163  0.0292 -0.1914  0.1102
  139MOL   C12044556   2.795   0.352   3.174 -0.5671 -0.4521 -0.0607
  139MOL   C12144557   2.712   0.247   3.143 -0.2520  0.0225 -0.2345
  139MOL   C12244558   2.676   8.402   2.926  0.4453 -0.0330 -0.0240
  139MOL   H12344559   2.578   0.019   3.099  0.3215  0.8649  2.2061
  139MOL   H12444560   2.950   0.021   3.061  2.0829 -0.1263  2.1811
  139MOL   H12544561   3.009   0.415   3.194  1.4539 -1.4580 -0.3588
  139MOL   H12644562   2.748   0.439   3.219  1.7035  1.8127 -1.8549
  139MOL   H12744563   2.612   0.239   3.182 -0.0094 -0.3589  0.3110
  139MOL   H12844564   2.664   0.059   2.869  1.4679 -0.0339 -0.2592
  139MOL   H12944565   2.776   8.366   2.901 -0.1849 -3.3482  1.9265
  139MOL   C13044566   2.557   8.309   2.879  0.2497 -0.0256 -0.2667
  139MOL   C13144567   2.420   8.372   2.901  0.1584 -0.5451 -0.8023
  139MOL   C13244568   2.374   0.045   2.818  0.3672  0.0795 -0.0805
  139MOL   C13344569   2.247   0.100   2.828  0.4217 -0.8369  0.2753
  139MOL  Cl13444570   2.187   0.209   2.708  0.1728 -0.1197  0.4038
  139MOL   C13544571   2.156   0.057   2.931 -0.0355 -0.4304  0.5501
  139MOL   C13644572   2.205   8.387   3.017  0.3719  0.4391 -0.4624
  139MOL   C13744573   2.332   8.333   3.008  0.2074  0.3319 -0.2687
  139MOL   C13844574   2.573   8.257   2.738  0.1156 -0.0651 -0.5396
  139MOL   H13944575   2.563   8.225   2.949  0.7822 -0.4380 -0.8134
  139MOL   H14044576   2.437   0.056   2.731  0.6694 -1.0221 -0.0155
  139MOL   H14144577   2.053   0.089   2.934  0.3549  0.9518 -0.3356
  139MOL   H14244578   2.138   8.349   3.093 -0.7987  2.4974 -0.4210
  139MOL   H14344579   2.369   8.257   3.075 -1.8989 -0.3276  0.1866
  139MOL   H14444580   2.475   8.231   2.698  1.0961 -2.3683 -1.5299
  139MOL   H14544581   2.609   8.344   2.683 -0.3462  1.7755  1.9988
  139MOL   C14644582   2.667   8.132   2.730 -0.2273  0.3383 -0.1246
  139MOL   C14744583   2.608   8.008   2.798  0.0800  0.1900  0.5608
  139MOL   C14844584   2.673   7.949   2.909  0.0904 -0.3629  0.3991
  139MOL   C14944585   2.620   7.832   2.971  0.2806 -0.4146 -0.0735
  139MOL  Cl15044586   2.677   7.770   3.121 -0.0905 -0.3749  0.0319
  139MOL   C15144587   2.499   7.779   2.922  0.8432  0.1037  0.1552
  139MOL   C15244588   2.435   7.832   2.803  0.6711  0.5272  0.0411
  139MOL   C15344589   2.495   7.945   2.747  0.5415  0.1555  0.0210
  139MOL   C15444590   2.726   8.111   2.589 -1.0100 -0.4837 -0.1728
  139MOL   H15544591   2.752   8.160   2.792  0.0683  2.1322 -1.2848
  139MOL   H15644592   2.761   8.001   2.944  1.3855 -0.9213 -1.9518
  139MOL   H15744593   2.455   7.688   2.961  0.3630  0.2051 -0.1437
  139MOL   H15844594   2.344   7.792   2.761  0.1342  1.9679 -0.1854
  139MOL   H15944595   2.437   7.986   2.665 -0.0271 -0.6371  0.0211
  139MOL   H16044596   2.779   8.016   2.596 -0.1301 -0.0982 -1.5011
  139MOL   H16144597   2.647   8.090   2.517 -0.2128 -0.4258 -1.0719
  139MOL   C16244598   2.823   8.219   2.536 -0.1278 -0.7026  0.0668
  139MOL   C16344599   2.918   8.281   2.637 -0.5422  0.3272  0.3161
  139MOL   C16444600   2.928   8.422   2.644  0.2259 -0.2884 -0.0724
  139MOL   C16544601   3.015   0.039   2.743 -0.4593 -0.7983 -0.0842
  139MOL  Cl16644602   3.038   0.209   2.768  0.2858  0.3109 -0.3918
  139MOL   C16744603   3.090   8.387   2.829 -0.3700 -0.1454  0.4364
  139MOL   C16844604   3.087   8.251   2.819 -0.5426  0.0587  0.1656
  139MOL   C16944605   2.999   8.198   2.718 -0.4547 -0.3407 -0.2981
  139MOL   C17044606   2.896   8.184   2.401 -0.4826 -0.1878 -0.0971
  139MOL   H17144607   2.759   8.304   2.511  0.3096 -0.9475 -1.9067
  139MOL   H17244608   2.866   0.050   2.583  2.2280  1.3435 -0.4506
  139MOL   H17344609   3.161   8.426   2.901 -0.2754  0.6309 -0.0681
  139MOL   H17444610   3.157   8.190   2.875  0.5340  1.4588  0.3894
  139MOL   H17544611   2.986   8.091   2.708 -0.8067 -0.3229 -0.0496
  139MOL   H17644612   2.965   8.260   2.366 -0.3229 -0.1080  0.3903
  139MOL   H17744613   2.967   8.105   2.425  1.0171 -0.0073 -3.6593
  139MOL   C17844614   2.815   8.134   2.276 -0.2789  0.0087  0.7761
  139MOL   C17944615   2.685   8.211   2.267  0.0215  0.4386  0.3822
  139MOL   C18044616   2.680   8.351   2.276 -0.1510  0.2416 -0.5427
  139MOL   C18144617   2.562   8.427   2.276 -0.0029  0.7640 -0.3763
  139MOL  Cl18244618   2.573   0.162   2.275 -0.5525 -0.4736 -0.2477
  139MOL   C18344619   2.439   8.361   2.282 -0.0263  0.0793 -0.1295
  139MOL   C18444620   2.439   8.218   2.279 -0.0279 -0.4599 -0.1058
  139MOL   C18544621   2.555   8.146   2.265 -0.4587  0.1087 -0.2447
  139MOL   C18644622   2.889   8.139   2.147  0.6039 -0.1461 -0.0822
  139MOL   H18744623   2.780   8.030   2.281  0.6071 -0.2297  2.3502
  139MOL   H18844624   2.777   8.399   2.279 -0.6395  1.3737 -2.1558
  139MOL   H18944625   2.352   8.425   2.290 -0.4303 -0.7012  1.7769
  139MOL   H19044626   2.344   8.166   2.288  1.1171 -2.2074  2.1266
  139MOL   H19144627   2.557   8.038   2.257 -0.5370  0.2631 -2.5591
  139MOL   H19244628   2.828   8.124   2.057  1.3554 -1.1664 -0.4227
  139MOL   H19344629   2.924   8.240   2.127 -0.3456  0.3762  0.7974
  139MOL   C19444630   2.998   8.031   2.128  0.6241  0.7893  0.1525
  139MOL   C19544631   2.939   7.908   2.051 -0.2545  0.5373  0.8228
  139MOL   C19644632   2.929   7.780   2.106 -0.2622  0.2814 -0.5070
  139MOL   C19744633   2.906   7.662   2.028  0.1260  0.3970 -0.3525
  139MOL  Cl19844634   2.917   7.504   2.099 -0.0537  0.2116 -0.3748
  139MOL   C19944635   2.881   7.679   1.889 -0.3750 -0.6984  0.5313
  139MOL   C20044636   2.869   7.810   1.843  0.4833 -0.1065 -0.1659
  139MOL   C20144637   2.896   7.922   1.921  0.5997  0.3248  0.6788
  139MOL   C20244638   3.114   8.087   2.044  0.5252 -0.1315 -0.2051
  139MOL   H20344639   3.033   7.990   2.223  0.5019  0.6517  0.1389
  139MOL   H20444640   2.945   7.766   2.211  1.6098 -0.8499 -0.9318
  139MOL   H20544641   2.848   7.602   1.821  2.1505 -0.8582 -0.5641
  139MOL   H20644642   2.835   7.820   1.741 -1.5164 -0.2183  0.4745
  139MOL   H20744643   2.898   8.020   1.876  2.4896 -0.4491 -0.9633
  139MOL   H20844644   3.161   7.998   2.001  1.5763  0.6298 -0.6490
  139MOL   H20944645   3.082   8.143   1.957 -0.4701 -0.8902 -0.3390
  139MOL   C21044646   3.233   8.169   2.115  0.4035  0.2473  0.4605
  139MOL   C21144647   3.291   8.084   2.233 -0.2934 -1.0217 -0.1173
  139MOL   C21244648   3.277   8.133   2.363  0.2459 -0.2658  0.5582
  139MOL   C21344649   3.337   8.068   2.473  0.3573 -0.3713  0.3581
  139MOL  Cl21444650   3.333   8.127   2.633 -0.2277 -0.0555  0.2300
  139MOL   C21544651   3.402   7.950   2.449  0.1976 -0.3100  0.2220
  139MOL   C21644652   3.419   7.901   2.319  0.7228  0.0388 -0.0003
  139MOL   C21744653   3.367   7.971   2.208 -0.6347  0.0649  0.4726
  139MOL   C21844654   3.343   8.214   2.016  0.3772  0.0406 -0.0025
  139MOL   H21944655   3.191   8.260   2.157  1.3818  1.3858 -1.0045
  139MOL   H22044656   3.230   8.229   2.376  2.0627  0.6994  0.1837
  139MOL   H22144657   3.448   7.897   2.532  1.0258  0.9026  0.5463
  139MOL   H22244658   3.485   7.816   2.309 -1.8618 -2.2443  1.5496
  139MOL   H22344659   3.387   7.938   2.107 -0.6407  1.7016 -0.0794
  139MOL   H22444660   3.426   8.242   2.081  0.6770  0.9154 -0.7484
  139MOL   H22544661   3.384   8.125   1.968 -1.3238 -0.9524  0.3467
  139MOL   C22644662   3.301   8.332   1.926  0.2748 -0.3701 -0.6455
  139MOL   C22744663   3.275   0.019   2.011  0.2619 -0.7504 -0.9647
  139MOL   C22844664   3.154   0.063   2.041  0.2840 -0.8011 -0.1082
  139MOL   C22944665   3.120   0.176   2.117 -0.2939  0.4351  0.3143
  139MOL  Cl23044666   2.955   0.227   2.144 -0.0614  0.2445  0.1450
  139MOL   C23144667   3.228   0.255   2.161 -0.2728 -0.9932  0.4247
  139MOL   C23244668   3.361   0.210   2.137  0.4476 -0.2932  0.3744
  139MOL   C23344669   3.382   0.099   2.058 -0.2519  0.2615  0.9446
  139MOL   C23444670   3.388   8.362   1.805  0.5582  0.4172  0.4058
  139MOL   H23544671   3.207   8.311   1.875 -0.7339 -0.0016  0.9974
  139MOL   H23644672   3.070   0.003   2.006  0.3124 -2.5803  2.6847
  139MOL   H23744673   3.202   0.341   2.221  0.4859 -1.3538  1.2738
  139MOL   H23844674   3.446   0.263   2.178 -0.6792  0.9771  1.1052
  139MOL   H23944675   3.484   0.068   2.043 -0.5855 -0.9394  1.1109
  139MOL   H24044676   3.352   0.019   1.759 -1.3863 -1.1335 -1.3104
  139MOL   H24144677   3.487   8.382   1.845  0.5091  0.8260  0.3180
  139MOL   C24244678   3.413   8.262   1.697 -0.1676  0.1776  0.6531
  139MOL   C24344679   3.288   8.202   1.639  0.1720  0.0080  1.2219
  139MOL   C24444680   3.271   8.061   1.647 -0.2011 -0.2343 -0.4810
  139MOL   C24544681   3.161   7.998   1.592  0.1466 -0.1382 -0.2309
  139MOL  Cl24644682   3.146   7.826   1.610 -0.0283 -0.3062  0.2605
  139MOL   C24744683   3.072   8.077   1.520 -0.6262  0.0337 -0.0649
  139MOL   C24844684   3.085   8.216   1.512  1.0319  0.3643 -0.7965
  139MOL   C24944685   3.194   8.279   1.574 -0.2760  0.4051 -1.2288
  139MOL   C25044686   3.502   8.335   1.595  0.4322 -0.2439 -0.3926
  139MOL   H25144687   3.477   8.186   1.742 -0.0212 -0.4559 -0.5985
  139MOL   H25244688   3.349   7.999   1.689 -0.6061 -0.4500 -0.0455
  139MOL   H25344689   2.983   8.031   1.480 -2.0873  1.3427  1.6151
  139MOL   H25444690   3.005   8.277   1.473 -0.1287  0.0485  1.0507
  139MOL   H25544691   3.205   8.386   1.566  0.4143  0.4747  0.5532
  139MOL   H25644692   3.455   8.420   1.545 -0.6298 -1.2162 -1.0576
  139MOL   H25744693   3.589   8.379   1.643  1.2176 -0.7893 -1.3132
  139MOL   C25844694   3.568   8.238   1.494 -0.0406 -1.2061 -0.4275
  139MOL   C25944695   3.479   8.199   1.380 -0.2699  0.9109 -0.3075
  139MOL   C26044696   3.429   8.063   1.378  0.1775 -0.5600  0.1084
  139MOL   C26144697   3.346   8.033   1.269  0.6556  0.9852  0.6516
  139MOL  Cl26244698   3.280   7.875   1.252  0.1433 -0.1948 -0.4486
  139MOL   C26344699   3.300   8.126   1.177 -0.3677  0.5660  0.1480
  139MOL   C26444700   3.354   8.261   1.188 -0.1831  0.0079 -0.3669
  139MOL   C26544701   3.444   8.294   1.290 -0.2991 -0.2658  0.4839
  139MOL   C26644702   3.705   8.281   1.445 -0.1498  0.4215  0.0253
  139MOL   H26744703   3.592   8.148   1.551 -2.4575 -1.1930  0.6750
  139MOL   H26844704   3.445   7.978   1.442  2.7555  0.3212  0.7065
  139MOL   H26944705   3.230   8.100   1.098  1.7041 -1.4884 -1.0519
  139MOL   H27044706   3.329   8.335   1.113 -0.3037  0.4859  0.1491
  139MOL   H27144707   3.493   8.390   1.284 -1.3852  0.2522 -0.1599
  139MOL   H27244708   3.710   8.390   1.433 -0.6463  0.3809 -0.5909
  139MOL   H27344709   3.781   8.261   1.520 -1.7393 -1.6602  1.1110
  139MOL   C27444710   3.755   8.228   1.306  0.7258  0.1657 -0.4101
  139MOL   C27544711   3.886   8.300   1.269  0.3063 -0.0935 -0.8241
  139MOL   C27644712   3.878   8.383   1.154 -0.4957  0.5842 -0.1784
  139MOL   C27744713   3.989   0.023   1.112  0.0452  0.7392 -0.1633
  139MOL  Cl27844714   3.982   0.127   0.975 -0.2501  0.0271  0.0443
  139MOL   C27944715   4.111   0.015   1.174  0.7026 -0.1870 -0.2569
  139MOL   C28044716   4.116   8.374   1.293  0.0982  0.4608 -0.2685
  139MOL   C28144717   4.004   8.299   1.346 -0.3026 -0.3575 -0.1754
  139MOL   C28244718   3.777   8.079   1.286 -0.4511  0.7196 -0.3906
  139MOL   H28344719   3.685   8.270   1.233 -0.3175  2.2590  1.7136
  139MOL   H28444720   3.788   8.398   1.095 -0.7304 -0.8094 -0.2131
  139MOL   H28544721   4.205   0.059   1.145  0.7592  0.1573  0.4335
  139MOL   H28644722   4.212   8.381   1.341  1.5255  5.4026 -3.4808
  139MOL   H28744723   4.017   8.237   1.434  0.4579 -1.7031 -1.2096
  139MOL   H28844724   3.863   8.051   1.346 -2.3406 -0.4974  1.8060
  139MOL   H28944725   3.691   8.022   1.321 -1.4668  1.8312 -1.0267
  139MOL   C29044726   3.827   8.040   1.142 -0.0362  0.6681  0.0302
  139MOL   C29144727   3.893   7.902   1.154 -0.1324  0.9872  0.0906
  139MOL   C29244728   4.032   7.890   1.163 -0.3743 -0.1959 -0.4801
  139MOL   C29344729   4.089   7.761   1.166  0.0608  1.1278 -0.8121
  139MOL  Cl29444730   4.253   7.763   1.195 -0.1448  0.1164  0.1976
  139MOL   C29544731   4.008   7.646   1.146 -1.0591  0.0361 -0.9059
  139MOL   C29644732   3.869   7.658   1.161 -0.0743 -0.3974  1.0733
  139MOL   C29744733   3.813   7.788   1.158 -0.2071  1.1388 -0.3900
  139MOL   C29844734   3.715   8.054   1.032  0.0733 -0.2563  0.5555
  139MOL   H29944735   3.907   8.104   1.105 -0.1743  0.3644 -0.8058
  139MOL   H30044736   4.093   7.979   1.161  1.6639 -1.4883  1.5063
  139MOL   H30144737   4.058   7.551   1.155 -0.5695  0.3674 -0.0149
  139MOL   H30244738   3.795   7.580   1.172 -0.2529 -0.1991  1.2969
  139MOL   H30344739   3.705   7.798   1.160 -0.1570  1.5071  0.5608
  139MOL   H30444740   3.640   7.977   1.048 -0.7041  0.8226  2.3199
  139MOL   H30544741   3.658   8.146   1.046  0.5210  0.0325  0.4785
  139MOL   C30644742   3.769   8.052   0.888 -0.1183 -0.5353 -0.3192
  139MOL   C30744743   3.702   7.943   0.805  0.6870 -0.3592 -0.0216
  139MOL   C30844744   3.760   7.813   0.808 -0.3355  0.3332 -0.0713
  139MOL   C30944745   3.683   7.713   0.751 -0.0817  0.4692 -0.0413
  139MOL  Cl31044746   3.739   7.551   0.761 -0.1408  0.2291 -0.1044
  139MOL   C31144747   3.554   7.739   0.693 -0.1697 -0.1392  0.4260
  139MOL   C31244748   3.510   7.865   0.675 -0.3275 -0.5287  0.1390
  139MOL   C31344749   3.577   7.971   0.738  0.1612  0.3506  0.2832
  139MOL   C31444750   3.772   8.200   0.834  0.0038 -0.3652  0.1343
  139MOL   H31544751   3.873   8.018   0.896  0.8996  2.4275 -0.4195
  139MOL   H31644752   3.857   7.786   0.848  0.9153  2.6138 -1.4883
  139MOL   H31744753   3.496   7.658   0.652  0.7721 -0.0744 -1.0519
  139MOL   H31844754   3.414   7.881   0.626 -0.1517 -1.9196 -0.6931
  139MOL   H31944755   3.542   8.073   0.740 -2.9797 -0.6793  3.6461
  139MOL   H32044756   3.839   8.212   0.750 -1.4065 -1.7882 -1.2324
  139MOL   H32144757   3.671   8.238   0.815  0.6030  0.3985 -1.5816
  139MOL   H32244758   3.805   8.263   0.917 -2.5082 -1.8329  2.3489
  140MOL     C144759   6.665   2.266   8.298 -0.0441  0.1527 -0.1310
  140MOL     C244760   6.575   2.152   8.256 -0.4997 -0.6792  0.9728
  140MOL     C344761   6.493   2.084   8.348 -0.2356  0.5267  0.3696
  140MOL     C444762   6.423   1.973   8.300 -0.5849 -0.4893  0.1673
  140MOL    Cl544763   6.300   1.910   8.397 -0.4675  0.0444  0.2111
  140MOL     C644764   6.443   1.928   8.167  0.6184  0.3348 -0.2050
  140MOL     C744765   6.526   1.992   8.074  0.3385  0.5485  0.3112
  140MOL     C844766   6.591   2.106   8.120 -0.7773 -1.2174  0.5692
  140MOL     C944767   6.794   2.206   8.347  0.2910 -0.5380  0.6320
  140MOL    H1044768   6.607   2.326   8.368 -0.5985  0.6660 -1.0190
  140MOL    H1144769   6.471   2.110   0.015 -2.0662  0.1006  0.0865
  140MOL    H1244770   6.392   1.839   8.134 -0.9920  1.0875  0.1877
  140MOL    H1344771   6.529   1.944   7.978  3.2087  0.4187  0.4089
  140MOL    H1444772   6.666   2.159   8.062 -1.7412 -0.3148  0.1448
  140MOL    H1544773   6.774   2.133   8.426 -1.5352 -0.2857  0.4236
  140MOL    H1644774   6.828   2.151   8.260  0.2732 -0.4739  0.5855
  140MOL    H1744775   6.690   2.324   8.209  0.8713 -0.2829 -0.1712
  140MOL    C1844776   6.897   2.310   8.401  0.4364  0.7274  0.8945
  140MOL    C1944777   6.834   2.370   0.092 -0.0871 -0.6033  0.2288
  140MOL    C2044778   6.748   2.483   0.084  0.7950 -0.0336 -0.3499
  140MOL    C2144779   6.684   2.526   0.200 -0.1637  0.0087  0.4277
  140MOL   Cl2244780   6.594   2.677   0.184 -0.2178  0.1423  0.0388
  140MOL    C2344781   6.690   2.461   0.323  0.3303 -0.1377 -0.1636
  140MOL    C2444782   6.776   2.353   0.326 -0.0891 -0.0327 -0.3333
  140MOL    C2544783   6.843   2.302   0.211  0.5638  0.3127  0.5757
  140MOL    C2644784   7.027   2.228   8.415 -0.5020  0.3830 -0.2185
  140MOL    H2744785   6.899   2.396   8.334  0.2649  1.1090  1.3792
  140MOL    H2844786   6.751   2.549   8.433 -0.9302  0.2766 -0.1787
  140MOL    H2944787   6.639   2.489   0.414 -0.0007  0.7216 -0.6018
  140MOL    H3044788   6.783   2.293   0.416 -1.6557 -0.5068 -0.5076
  140MOL    H3144789   6.901   2.212   0.225 -0.2702 -0.1752  0.9356
  140MOL    H3244790   7.015   2.151   0.055  0.2719  0.7538  0.2851
  140MOL    H3344791   7.045   2.177   8.320 -0.1512  0.0750  0.0105
  140MOL    C3444792   7.150   2.307   0.025 -0.3607 -0.3789 -0.2499
  140MOL    C3544793   7.272   2.224   0.073  0.2503  0.2198 -0.2168
  140MOL    C3644794   7.287   2.084   0.038  0.1441 -0.4630 -0.4150
  140MOL    C3744795   7.403   2.015   0.072 -0.0198  0.1600  0.1456
  140MOL   Cl3844796   7.441   1.860   0.004  0.0369  0.3454  0.1886
  140MOL    C3944797   7.494   2.079   0.163  0.0616  0.1877  0.5591
  140MOL    C4044798   7.473   2.210   0.210 -0.0994 -0.4946  0.0080
  140MOL    C4144799   7.358   2.284   0.170 -0.4803 -0.0284  0.2164
  140MOL    C4244800   7.184   2.414   8.362  0.2149 -0.1145 -0.2264
  140MOL    H4344801   7.125   2.361   0.116 -0.5475 -0.2813 -0.3605
  140MOL    H4444802   7.219   2.047   8.398 -0.1592  1.1275 -0.9598
  140MOL    H4544803   7.587   2.034   0.193  1.4017  3.2168  1.0677
  140MOL    H4644804   7.547   2.253   0.275  0.4164  1.6885 -1.9449
  140MOL    H4744805   7.347   2.385   0.205  1.8287  0.2812  0.1709
  140MOL    H4844806   7.097   2.478   8.350  0.0999 -0.0828  0.7150
  140MOL    H4944807   7.268   2.468   8.406  1.2362 -0.5896 -1.5555
  140MOL    C5044808   7.228   2.361   8.224  0.6220 -0.7395  0.2833
  140MOL    C5144809   7.105   2.352   8.133  0.4851  0.7473 -0.6405
  140MOL    C5244810   7.019   2.456   8.097 -0.1992 -0.0442  0.0460
  140MOL    C5344811   6.904   2.432   8.019 -0.1967 -0.3141  0.1147
  140MOL   Cl5444812   6.780   2.554   8.006 -0.0520  0.0674  0.2818
  140MOL    C5544813   6.897   2.315   7.950 -0.1102 -0.3277 -0.0988
  140MOL    C5644814   6.982   2.207   7.976 -0.1749 -0.0041  0.7963
  140MOL    C5744815   7.088   2.227   8.067  0.1761  0.0198 -0.1232
  140MOL    C5844816   7.340   2.442   8.156  0.1005  0.4428  0.0628
  140MOL    H5944817   7.271   2.261   8.234 -1.2992 -1.5684  0.4597
  140MOL    H6044818   7.029   2.556   8.138  1.1123  1.3743 -3.5930
  140MOL    H6144819   6.809   2.303   7.888 -1.3533 -1.1856  1.8055
  140MOL    H6244820   6.977   2.107   7.935  0.8073  0.6046 -0.8476
  140MOL    H6344821   7.172   2.159   8.082 -2.1189 -3.1826 -1.1750
  140MOL    H6444822   7.330   2.456   8.048  0.7800  0.7505  0.0367
  140MOL    H6544823   7.323   2.544   8.193  1.5571  0.1438  1.5857
  140MOL    C6644824   7.487   2.398   8.188  0.1027  0.1167 -0.2441
  140MOL    C6744825   7.508   2.255   8.156 -0.4386  0.1348 -0.0754
  140MOL    C6844826   7.586   2.175   8.245  0.6258  0.1718  0.0826
  140MOL    C6944827   7.617   2.047   8.205  0.0205  0.4149  0.4237
  140MOL   Cl7044828   7.731   1.951   8.287  0.2350  0.5050  0.1589
  140MOL    C7144829   7.570   1.997   8.079  0.4255 -0.1971 -0.4078
  140MOL    C7244830   7.489   2.072   7.997  0.1104 -0.0852  0.2373
  140MOL    C7344831   7.463   2.202   8.030  0.1826 -0.0875  0.6261
  140MOL    C7444832   7.576   2.491   8.099 -1.2803  0.4014 -0.5534
  140MOL    H7544833   7.489   2.422   8.294 -2.8246  2.7370 -0.7114
  140MOL    H7644834   7.614   2.218   8.340 -1.0139 -1.0728  1.1633
  140MOL    H7744835   7.611   1.904   8.043  0.0186 -0.5307 -0.0213
  140MOL    H7844836   7.442   2.044   7.903 -0.5457  1.1392  0.1964
  140MOL    H7944837   7.411   2.268   7.962  0.8119  0.4974  0.7098
  140MOL    H8044838   7.589   2.458   7.996  2.9141 -0.8473  0.2482
  140MOL    H8144839   7.542   2.594   8.087  2.3728  1.6117 -1.1681
  140MOL    C8244840   7.719   2.505   8.158  0.8616 -0.5732  0.7902
  140MOL    C8344841   7.805   2.386   8.151  0.1607 -0.3046 -1.0251
  140MOL    C8444842   7.817   2.302   8.034 -0.1261 -0.1137 -0.3447
  140MOL    C8544843   7.900   2.188   8.032  0.2028 -0.0520  0.7009
  140MOL   Cl8644844   7.905   2.081   7.898  0.1802  0.1011  0.3698
  140MOL    C8744845   7.965   2.155   8.155  0.2164 -0.6801 -0.1358
  140MOL    C8844846   7.957   2.235   8.272  0.8319  0.1468 -0.1541
  140MOL    C8944847   7.886   2.357   8.265  0.3060  0.3419  0.5951
  140MOL    C9044848   7.799   2.625   8.086  0.2429  0.5481  0.0734
  140MOL    H9144849   7.710   2.522   8.265 -3.3818 -0.9805  0.5561
  140MOL    H9244850   7.748   2.314   7.951  0.4497 -2.7312 -1.2533
  140MOL    H9344851   8.018   2.062   8.171 -0.6245 -1.1655 -0.1200
  140MOL    H9444852   8.008   2.215   8.365  0.7046 -0.4033 -0.2038
  140MOL    H9544853   7.878   2.429   8.345 -1.7406 -0.7490  1.4231
  140MOL    H9644854   7.907   2.616   8.100  0.2352 -1.8769 -1.3192
  140MOL    H9744855   7.787   2.609   7.979 -2.0858  2.8105 -0.0517
  140MOL    C9844856   7.757   2.770   8.116  1.3113  0.1122 -0.1080
  140MOL    C9944857   7.768   2.809   8.266  0.3240  0.3804 -0.8671
  140MOL   C10044858   7.649   2.849   8.338  0.3244 -0.4028  0.5424
  140MOL   C10144859   7.659   2.883   0.035 -0.0931 -0.1558  0.0775
  140MOL  Cl10244860   7.520   2.924   0.134  0.0070  0.4320  0.1545
  140MOL   C10344861   7.790   2.910   0.088  0.4917  0.0819  0.2570
  140MOL   C10444862   7.906   2.877   0.022 -0.0519 -0.1849  0.1773
  140MOL   C10544863   7.894   2.825   8.329 -0.0670 -0.0178  0.4449
  140MOL   C10644864   7.821   2.870   8.025  0.3770  0.2246  0.2880
  140MOL   H10744865   7.649   2.781   8.100  1.9067  1.5959 -3.6046
  140MOL   H10844866   7.559   2.840   8.279  0.1216  0.5378  0.7034
  140MOL   H10944867   7.785   2.948   0.189  1.1547 -0.0564  0.3456
  140MOL   H11044868   7.997   2.892   0.078 -0.1810 -2.0331  0.9139
  140MOL   H11144869   7.979   2.787   8.275 -0.5625 -1.1431  0.4445
  140MOL   H11244870   7.920   2.905   8.053  1.0552 -0.1730 -1.5021
  140MOL   H11344871   7.853   2.825   7.930 -1.8074  0.1436 -0.4336
  140MOL   C11444872   7.735   3.000   7.999 -0.7388 -0.7001 -0.4010
  140MOL   C11544873   7.832   3.110   7.953 -0.1348 -0.8381 -0.4913
  140MOL   C11644874   7.922   3.098   7.842 -0.3554 -0.2060  0.1912
  140MOL   C11744875   7.997   3.206   7.801  0.2708  0.2494 -0.0823
  140MOL  Cl11844876   8.112   3.180   7.675 -0.0810  0.3880  0.0652
  140MOL   C11944877   7.978   3.332   7.853  0.0307  0.3862 -0.5529
  140MOL   C12044878   7.896   3.351   7.966  0.0515 -0.3591 -0.0153
  140MOL   C12144879   7.832   3.239   8.021 -0.4198 -0.0103 -0.8412
  140MOL   C12244880   7.620   2.977   7.905  0.4094 -0.2107  0.1228
  140MOL   H12344881   7.692   3.032   8.094 -0.0366 -1.6884  0.2586
  140MOL   H12444882   7.927   3.011   7.779 -1.6273 -0.8581  0.9508
  140MOL   H12544883   8.040   3.412   7.817  0.8764  0.2975  0.6820
  140MOL   H12644884   7.897   3.449   8.011  1.4436 -0.5405  0.3673
  140MOL   H12744885   7.765   3.258   8.104 -1.1427  0.1872 -1.4663
  140MOL   H12844886   7.646   3.025   7.811  1.2185 -0.5801  0.1600
  140MOL   H12944887   7.622   2.870   7.886  1.2365 -0.1188 -0.3434
  140MOL   C13044888   7.482   3.037   7.964  0.3368 -0.1619 -0.7971
  140MOL   C13144889   7.488   3.190   7.987  0.3590 -0.5448  0.2461
  140MOL   C13244890   7.502   3.287   7.881 -0.8368 -0.1835 -0.5426
  140MOL   C13344891   7.511   3.422   7.921 -0.1787  0.0794  0.2825
  140MOL  Cl13444892   7.539   3.543   7.802  0.6818 -0.1433 -0.1146
  140MOL   C13544893   7.491   3.460   8.052  0.3670  0.0095  0.7395
  140MOL   C13644894   7.470   3.367   8.154 -0.1642 -0.0402  0.5061
  140MOL   C13744895   7.473   3.234   8.119  0.8033  0.3442 -0.5999
  140MOL   C13844896   7.366   3.005   7.876 -0.1897  0.0818  0.5945
  140MOL   H13944897   7.463   2.991   8.061  2.7345  0.5065  0.0149
  140MOL   H14044898   7.502   3.252   7.779 -0.2885 -1.6187 -0.0698
  140MOL   H14144899   7.509   3.564   8.075 -0.5155  0.0019  1.4704
  140MOL   H14244900   7.458   3.387   8.259  0.3061 -0.1024  0.5733
  140MOL   H14344901   7.462   3.170   8.206  0.6585  0.3889 -0.5847
  140MOL   H14444902   7.292   3.085   7.883  0.8030  1.3579 -2.4877
  140MOL   H14544903   7.398   3.017   7.773 -0.3435  0.3189  0.5729
  140MOL   C14644904   7.310   2.862   7.891  0.5952 -0.0279 -0.0573
  140MOL   C14744905   7.208   2.859   8.004 -0.1792 -0.3666  0.5878
  140MOL   C14844906   7.250   2.851   8.140 -0.0558  0.3101 -0.1167
  140MOL   C14944907   7.152   2.860   8.242  0.2459 -0.0758  0.7161
  140MOL  Cl15044908   7.202   2.855   8.405  0.0933 -0.2351 -0.2344
  140MOL   C15144909   7.020   2.892   8.208  0.0648 -0.1915 -0.1379
  140MOL   C15244910   6.977   2.907   8.076 -0.1404 -1.1516 -0.3028
  140MOL   C15344911   7.074   2.890   7.977  0.1213  0.0297 -0.2896
  140MOL   C15444912   7.269   2.803   7.754 -0.1052 -1.1797  0.3013
  140MOL   H15544913   7.388   2.800   7.936  0.7250  0.8639  0.9612
  140MOL   H15644914   7.354   2.832   8.162 -0.1406 -0.1646 -0.1203
  140MOL   H15744915   6.953   2.907   8.292  0.0193  1.7564 -0.4860
  140MOL   H15844916   6.880   2.946   8.048 -0.1412 -0.9064  0.0465
  140MOL   H15944917   7.051   2.904   7.873  0.0873 -0.2831 -0.3255
  140MOL   H16044918   7.202   2.720   7.775  1.7512 -2.3130  1.9498
  140MOL   H16144919   7.215   2.880   7.700  2.8253  1.7483  1.3620
  140MOL   C16244920   7.394   2.764   7.670 -0.0569  0.4626  0.6861
  140MOL   C16344921   7.445   2.622   7.698 -0.7678  0.2520  0.0737
  140MOL   C16444922   7.365   2.508   7.705  0.4097 -0.6872  0.2234
  140MOL   C16544923   7.420   2.380   7.707 -0.6383 -0.3159 -0.4263
  140MOL  Cl16644924   7.311   2.251   7.699  0.0889  0.6738  0.0705
  140MOL   C16744925   7.558   2.363   7.710 -0.3320  0.0914  0.1867
  140MOL   C16844926   7.641   2.471   7.700  0.0456 -0.8368 -0.4937
  140MOL   C16944927   7.584   2.601   7.692 -1.2102 -0.3721 -0.3116
  140MOL   C17044928   7.377   2.781   7.516  0.0282  0.3880  0.3138
  140MOL   H17144929   7.477   2.830   7.695  1.2436 -1.1169  0.6186
  140MOL   H17244930   7.258   2.517   7.712  0.6029  2.0667  0.0378
  140MOL   H17344931   7.610   2.268   7.704 -0.7689 -0.2676  1.6524
  140MOL   H17444932   7.748   2.460   7.705  0.2105 -0.2605 -2.3578
  140MOL   H17544933   7.650   2.685   7.675  1.5939 -2.6235 -0.9147
  140MOL   H17644934   7.435   2.702   7.469 -0.9953  0.4158 -1.0388
  140MOL   H17744935   7.278   2.751   7.480  0.9820 -0.9016 -1.2464
  140MOL   C17844936   7.400   2.910   7.454 -0.0195  0.3816  0.6434
  140MOL   C17944937   7.539   2.960   7.485 -0.4771 -0.4040  0.2751
  140MOL   C18044938   7.547   3.086   7.543  0.0096 -0.0381  0.2679
  140MOL   C18144939   7.676   3.144   7.567  0.8122  0.1030 -0.4785
  140MOL  Cl18244940   7.693   3.308   7.610  0.3121 -0.4373  0.1012
  140MOL   C18344941   7.789   3.069   7.542  0.0740  0.9402  0.9104
  140MOL   C18444942   7.776   2.937   7.485  0.3679 -0.0769  0.6289
  140MOL   C18544943   7.650   2.884   7.452  0.1653 -0.4528 -0.0949
  140MOL   C18644944   7.373   2.907   7.305 -0.1720 -0.7222  0.1621
  140MOL   H18744945   7.332   2.975   7.509 -0.0153  0.4668  0.5482
  140MOL   H18844946   7.465   3.150   7.569 -0.8233  0.6339 -3.7216
  140MOL   H18944947   7.886   3.114   7.557  0.9763 -0.6055 -0.1700
  140MOL   H19044948   7.863   2.876   7.465 -0.2451 -0.9975  0.7168
  140MOL   H19144949   7.639   2.791   7.398 -0.4514  0.3145 -1.3198
  140MOL   H19244950   7.433   2.843   7.240  1.7052  1.2894 -0.1320
  140MOL   H19344951   7.272   2.870   7.286 -0.4771  0.7955 -1.3089
  140MOL   C19444952   7.379   3.046   7.233  0.5898  0.0321 -0.7196
  140MOL   C19544953   7.421   3.034   7.083  0.4789  0.2308  0.9002
  140MOL   C19644954   7.549   3.070   7.049  0.1273 -0.2924  0.2116
  140MOL   C19744955   7.600   3.052   6.918  0.9032 -0.1099  0.5725
  140MOL  Cl19844956   7.765   3.081   6.885  0.3850 -0.1121  0.4863
  140MOL   C19944957   7.504   3.023   6.814  0.6272  0.1580  0.2280
  140MOL   C20044958   7.369   2.990   6.848 -0.0353  0.2751  0.3484
  140MOL   C20144959   7.328   2.991   6.983  0.2764  0.2832 -0.3299
  140MOL   C20244960   7.242   3.121   7.242 -0.0618 -0.4811 -0.6352
  140MOL   H20344961   7.455   3.100   7.289 -1.9643  1.6994  1.2142
  140MOL   H20444962   7.614   3.107   7.128  0.8634 -2.8091  0.8249
  140MOL   H20544963   7.532   3.021   6.710  2.2567 -2.4371  0.6730
  140MOL   H20644964   7.290   2.970   6.777 -0.0743 -2.2392  1.0431
  140MOL   H20744965   7.224   2.971   7.001 -0.0658  1.1216 -1.3424
  140MOL   H20844966   7.163   3.058   7.202 -0.8984  1.8670 -2.8798
  140MOL   H20944967   7.217   3.111   7.348  1.3243 -0.9384 -0.3419
  140MOL   C21044968   7.224   3.264   7.191 -0.0740 -0.6076 -0.3632
  140MOL   C21144969   7.076   3.288   7.189 -0.3210  0.6387  0.3272
  140MOL   C21244970   7.012   3.347   7.303 -0.5073 -0.5678 -0.4787
  140MOL   C21344971   6.872   3.368   7.303 -0.4979 -0.1605  0.2621
  140MOL  Cl21444972   6.794   3.445   7.443  0.1193 -0.0480  0.2685
  140MOL   C21544973   6.798   3.332   7.189  0.2174 -0.1390 -0.5713
  140MOL   C21644974   6.861   3.275   7.079  0.0684 -0.1076 -0.2972
  140MOL   C21744975   7.000   3.247   7.080  0.3119  0.6706  0.1797
  140MOL   C21844976   7.308   3.371   7.267 -0.3538 -0.3029  0.0631
  140MOL   H21944977   7.255   3.273   7.087  0.4594 -1.4595 -0.2870
  140MOL   H22044978   7.071   3.388   7.383 -1.0404  2.5194 -1.6111
  140MOL   H22144979   6.692   3.350   7.185  0.3673  1.0253  0.4165
  140MOL   H22244980   6.803   3.245   6.993 -0.9200 -0.0392  0.3441
  140MOL   H22344981   7.046   3.193   6.999  0.1225  0.1718  0.4053
  140MOL   H22444982   7.248   3.463   7.263 -0.7122 -0.5626 -0.5480
  140MOL   H22544983   7.322   3.328   7.366 -1.3952 -1.5549 -0.3192
  140MOL   C22644984   7.447   3.401   7.210  0.1172  0.2794 -0.0902
  140MOL   C22744985   7.441   3.466   7.073 -0.0423  0.5417 -0.3461
  140MOL   C22844986   7.407   3.605   7.050  0.3495  0.5713  0.6410
  140MOL   C22944987   7.390   3.659   6.920 -0.2685 -0.6978  0.5114
  140MOL  Cl23044988   7.352   3.822   6.893 -0.0858 -0.0241  0.1310
  140MOL   C23144989   7.414   3.574   6.810  0.9390  0.0474 -0.2542
  140MOL   C23244990   7.458   3.442   6.834  0.1153  0.5050 -0.7248
  140MOL   C23344991   7.463   3.387   6.960  0.1919 -0.0882 -0.6520
  140MOL   C23444992   7.529   3.480   7.308  0.0834 -0.3371 -0.3906
  140MOL   H23544993   7.496   3.304   7.197 -1.3091 -0.6095  1.0370
  140MOL   H23644994   7.393   3.662   7.141  1.4481 -0.8955  1.7510
  140MOL   H23744995   7.406   3.632   6.720  0.2458  2.5035  1.3282
  140MOL   H23844996   7.466   3.383   6.744 -0.8228 -0.4212 -0.2157
  140MOL   H23944997   7.491   3.283   6.971  0.6376 -0.0798 -1.6477
  140MOL   H24044998   7.465   3.564   7.333  0.2346  0.1968 -1.7515
  140MOL   H24144999   7.545   3.423   7.400 -0.1553 -1.0059 -0.7601
  140MOL   C24245000   7.666   3.528   7.258  0.3981 -0.8529  0.1476
  140MOL   C24345001   7.710   3.643   7.348  0.2147  0.3079 -0.1242
  140MOL   C24445002   7.795   3.747   7.295  0.0286 -0.0905  0.7408
  140MOL   C24545003   7.836   3.852   7.375  0.0581  0.0161 -0.7158
  140MOL  Cl24645004   7.941   3.970   7.297 -0.1515  0.0416  0.1518
  140MOL   C24745005   7.812   3.851   7.510  0.0479 -0.7290  0.4419
  140MOL   C24845006   7.719   3.760   7.562  0.4800 -0.0624  0.4513
  140MOL   C24945007   7.677   3.652   7.485  0.0243 -0.7251 -0.6149
  140MOL   C25045008   7.764   3.410   7.260  0.3234  0.2196  0.1308
  140MOL   H25145009   7.665   3.569   7.157 -1.3191 -0.2155  0.4053
  140MOL   H25245010   7.825   3.736   7.192  0.1212  0.8815  0.6589
  140MOL   H25345011   7.848   3.935   7.566 -0.2156 -0.0950 -0.3373
  140MOL   H25445012   7.684   3.773   7.664  1.5420  0.6858  0.7246
  140MOL   H25545013   7.607   3.589   7.536 -1.5825  1.9207  0.5531
  140MOL   H25645014   7.802   3.394   7.361  3.8268 -1.2226 -1.3152
  140MOL   H25745015   7.718   3.312   7.247 -0.1211  0.2700  1.2461
  140MOL   C25845016   7.893   3.422   7.173  0.0112  0.0664  0.3320
  140MOL   C25945017   8.001   3.331   7.229 -0.4121  0.3268 -0.6746
  140MOL   C26045018   7.979   3.195   7.222 -1.2274 -0.2409  0.1435
  140MOL   C26145019   8.086   3.111   7.265  1.0827 -0.3112  0.0108
  140MOL  Cl26245020   8.071   2.939   7.248 -0.1241 -0.1634  0.0194
  140MOL   C26345021   8.204   3.156   7.304 -0.2201  0.0217  0.3716
  140MOL   C26445022   8.227   3.298   7.311  0.4410  0.3638  0.0384
  140MOL   C26545023   8.122   3.388   7.284  0.2569 -0.2143 -0.2990
  140MOL   C26645024   7.856   3.400   7.020  0.2487  0.5534  0.0206
  140MOL   H26745025   7.921   3.526   7.187  2.2354 -0.1836 -1.8417
  140MOL   H26845026   7.893   3.150   7.173  0.8276 -1.3656 -2.5704
  140MOL   H26945027   8.282   3.084   7.327 -0.7912 -1.4160 -1.9572
  140MOL   H27045028   8.320   3.341   7.345 -0.7153  2.9861 -0.0495
  140MOL   H27145029   8.135   3.495   7.282 -0.5965 -0.1046 -0.0365
  140MOL   H27245030   7.847   3.294   6.996  1.5438  0.0851  1.5232
  140MOL   H27345031   7.752   3.431   7.013 -0.6073 -1.6828  2.1065
  140MOL   C27445032   7.940   3.475   6.918 -0.2764 -0.0010  0.5285
  140MOL   C27545033   8.081   3.419   6.915  0.1352 -0.1400  0.0500
  140MOL   C27645034   8.190   3.500   6.949  0.4020  0.8325  0.4936
  140MOL   C27745035   8.318   3.449   6.962 -0.2657  0.4075  0.4923
  140MOL  Cl27845036   0.018   3.552   7.004  0.2465 -0.2070  0.0932
  140MOL   C27945037   8.336   3.309   6.937 -0.4563 -0.1651 -0.5862
  140MOL   C28045038   8.228   3.225   6.902  0.2090 -0.7721  0.7169
  140MOL   C28145039   8.100   3.283   6.892  0.0243 -0.5046  0.0878
  140MOL   C28245040   7.877   3.471   6.778 -0.4638 -0.0001  0.0536
  140MOL   H28345041   7.941   3.577   6.958  2.0267 -0.0635  0.6876
  140MOL   H28445042   8.169   3.604   6.973  0.1064  0.6921  0.8371
  140MOL   H28545043   8.432   3.259   6.928  0.4353  1.3713  0.0983
  140MOL   H28645044   8.244   3.124   6.866  0.5304 -0.7719  0.8567
  140MOL   H28745045   8.019   3.219   6.860  2.7831 -3.4803 -1.2165
  140MOL   H28845046   7.868   3.369   6.740 -1.2072  0.6125 -1.4686
  140MOL   H28945047   7.771   3.494   6.781 -0.4228  0.5287 -1.6160
  140MOL   C29045048   7.945   3.571   6.674 -0.1869 -0.1623  0.9189
  140MOL   C29145049   7.973   3.494   6.542 -0.4637 -0.2795  0.7398
  140MOL   C29245050   8.104   3.458   6.502 -0.1278  0.0416 -0.6129
  140MOL   C29345051   8.122   3.386   6.383 -0.4043 -0.6973 -0.1216
  140MOL  Cl29445052   8.284   3.347   6.334  0.1351  0.3735 -0.2199
  140MOL   C29545053   8.014   3.346   6.301 -0.1144  0.4200 -0.5899
  140MOL   C29645054   7.882   3.369   6.340  0.3140  0.1426  0.2854
  140MOL   C29745055   7.867   3.435   6.467  0.3718  0.4123  0.3571
  140MOL   C29845056   7.842   3.688   6.637 -0.6500 -0.9101  0.9438
  140MOL   H29945057   8.040   3.610   6.709  0.2660 -0.6954  0.3078
  140MOL   H30045058   8.185   3.500   6.560 -1.0901 -0.3165  1.0208
  140MOL   H30145059   8.042   3.300   6.207  0.7132  1.3608 -0.8213
  140MOL   H30245060   7.809   3.338   6.267  1.7710 -1.0459 -0.6999
  140MOL   H30345061   7.770   3.445   6.514 -0.2595  1.4582 -1.1455
  140MOL   H30445062   7.873   3.723   6.539 -1.6883  0.1294  0.9730
  140MOL   H30545063   7.753   3.629   6.613 -1.3800  0.9936 -1.1507
  140MOL   C30645064   7.821   3.796   6.745 -0.5067 -0.2383  0.5569
  140MOL   C30745065   7.955   3.855   6.785  0.2428  0.6235  0.0119
  140MOL   C30845066   8.045   3.914   6.695  0.4544  0.8852 -0.0225
  140MOL   C30945067   8.169   3.960   6.732 -0.9475 -0.0008 -0.6400
  140MOL  Cl31045068   8.247   4.060   6.618  0.0722 -0.2524  0.0932
  140MOL   C31145069   8.212   3.949   6.864  0.2042 -0.6801 -0.0202
  140MOL   C31245070   8.134   3.874   6.954  0.6433 -0.0430 -0.0625
  140MOL   C31345071   8.006   3.825   6.912 -0.5432  0.1908 -0.1556
  140MOL   C31445072   7.722   3.895   6.680  0.5492  0.3072 -0.1684
  140MOL   H31545073   7.763   3.756   6.829 -0.8555 -1.7749 -0.3970
  140MOL   H31645074   8.007   3.937   6.597 -0.1992 -2.0082 -0.4905
  140MOL   H31745075   8.305   3.994   6.897 -0.2961 -0.3727  0.9670
  140MOL   H31845076   8.171   3.854   7.053 -0.4355  4.4238  1.3512
  140MOL   H31945077   7.945   3.777   6.987  0.9719  1.4648  1.9449
  140MOL   H32045078   7.753   3.947   6.590  0.4177 -2.3077 -1.7626
  140MOL   H32145079   7.628   3.846   6.657  1.3774 -1.5207  0.2791
  140MOL   H32245080   7.714   3.972   6.757 -2.0519 -0.8243  0.7489
  141MOL     C145081   6.908   6.636   7.141 -0.4282  0.4514  1.4569
  141MOL     C245082   6.852   6.550   7.026 -0.5595  0.7344  0.1281
  141MOL     C345083   6.776   6.615   6.929 -0.0241 -0.4421 -0.1774
  141MOL     C445084   6.736   6.545   6.817  0.0135 -0.4702  0.6700
  141MOL    Cl545085   6.648   6.630   6.697 -0.2862 -0.3011  0.3758
  141MOL     C645086   6.780   6.416   6.800  0.5005  0.2839  0.0163
  141MOL     C745087   6.851   6.349   6.897  0.0721 -0.0450  0.3439
  141MOL     C845088   6.888   6.412   7.015  0.8447  0.6399  0.2368
  141MOL     C945089   6.902   6.569   7.281 -0.3674  0.1870  0.3257
  141MOL    H1045090   6.848   6.726   7.147 -0.8098  0.3187 -0.1030
  141MOL    H1145091   6.745   6.719   6.926 -0.3094 -0.5214  0.0433
  141MOL    H1245092   6.761   6.372   6.703  0.6731  0.7196 -0.2129
  141MOL    H1345093   6.880   6.250   6.866 -2.8824 -0.4891 -1.2732
  141MOL    H1445094   6.951   6.367   7.090  2.7803  1.2801 -0.9814
  141MOL    H1545095   6.807   6.517   7.271  0.4172 -1.0175 -1.0813
  141MOL    H1645096   6.977   6.492   7.300 -0.5558 -0.2906 -0.8385
  141MOL    H1745097   7.008   6.673   7.124  0.2672 -1.7995  0.4627
  141MOL    C1845098   6.874   6.669   7.397  0.7008 -0.3916  0.2269
  141MOL    C1945099   6.806   6.614   7.521 -1.0859 -0.3217 -0.2798
  141MOL    C2045100   6.849   6.494   7.580 -0.4841 -0.9517 -0.7556
  141MOL    C2145101   6.793   6.450   7.705 -0.1258 -0.1432 -0.0568
  141MOL   Cl2245102   6.853   6.316   7.797  0.1107  0.0815  0.0860
  141MOL    C2345103   6.692   6.523   7.771 -0.2111  0.9522 -0.0506
  141MOL    C2445104   6.646   6.643   7.712 -0.6563  0.3743  0.4887
  141MOL    C2545105   6.706   6.683   7.588 -1.0768 -0.9117 -0.2151
  141MOL    C2645106   6.987   6.763   7.434  0.6335  0.2300  0.4642
  141MOL    H2745107   6.797   6.738   7.362  1.2102 -0.7041 -1.5604
  141MOL    H2845108   6.930   6.444   7.529  0.2813  1.0576 -1.5459
  141MOL    H2945109   6.651   6.486   7.864 -0.0759  0.4245 -0.2005
  141MOL    H3045110   6.566   6.694   7.763 -1.5648  1.8907 -2.3083
  141MOL    H3145111   6.660   6.771   7.547 -1.2887 -1.0752 -0.3279
  141MOL    H3245112   7.027   6.810   7.344 -2.6183  0.6249 -0.8743
  141MOL    H3345113   6.939   6.845   7.489 -0.2473  1.2218 -1.7397
  141MOL    C3445114   7.107   6.713   7.505 -0.0708  0.3178 -0.4399
  141MOL    C3545115   7.187   6.613   7.425  0.1153  0.3571 -0.0859
  141MOL    C3645116   7.189   6.480   7.471  0.2627 -0.5338  0.3203
  141MOL    C3745117   7.248   6.378   7.394  0.0828 -0.3667 -0.4832
  141MOL   Cl3845118   7.252   6.214   7.454  0.4502 -0.1698  0.0928
  141MOL    C3945119   7.321   6.414   7.271 -0.5907  0.3467 -0.4965
  141MOL    C4045120   7.324   6.546   7.224  0.4541  1.2288 -0.7307
  141MOL    C4145121   7.260   6.648   7.309  0.5552  0.3078  0.6578
  141MOL    C4245122   7.188   6.828   7.558 -0.2764  0.1621 -0.0811
  141MOL    H4345123   7.077   6.659   7.595  1.4316 -0.1269 -0.1959
  141MOL    H4445124   7.146   6.454   7.567  0.6482  1.4092  1.0365
  141MOL    H4545125   7.376   6.337   7.218 -1.8459 -0.3581 -0.8079
  141MOL    H4645126   7.379   6.577   7.136  2.3192 -0.5984 -0.2537
  141MOL    H4745127   7.261   6.752   7.280  1.4340  0.5030  1.3902
  141MOL    H4845128   7.206   6.892   7.471 -3.2363  1.1611 -0.0049
  141MOL    H4945129   7.133   6.904   7.613  0.3330  1.4811 -1.2622
  141MOL    C5045130   7.325   6.794   7.642 -0.5954 -0.0142 -0.0859
  141MOL    C5145131   7.406   6.922   7.647 -0.1607 -0.7102 -0.3852
  141MOL    C5245132   7.518   6.934   7.561 -0.8039  0.2214 -0.3984
  141MOL    C5345133   7.598   7.048   7.563  0.0063  0.0163 -0.6396
  141MOL   Cl5445134   7.721   7.064   7.442  0.0586 -0.0148 -0.1164
  141MOL    C5545135   7.582   7.156   7.651  0.2212 -0.2025 -0.0985
  141MOL    C5645136   7.462   7.151   7.730  0.1059 -0.0978  0.0058
  141MOL    C5745137   7.379   7.038   7.727  0.1575  0.1282 -0.2298
  141MOL    C5845138   7.290   6.736   7.788 -0.4859 -0.1033  0.3497
  141MOL    H5945139   7.379   6.721   7.581 -1.0268 -0.4711  0.0739
  141MOL    H6045140   7.550   6.858   7.492  1.7254 -0.3797  1.3622
  141MOL    H6145141   7.653   7.237   7.648  4.5621 -3.9244 -2.0088
  141MOL    H6245142   7.429   7.236   7.788  0.3197 -0.2600  0.3602
  141MOL    H6345143   7.294   7.039   7.795 -0.7275 -0.6409 -1.3059
  141MOL    H6445144   7.235   6.816   7.837 -2.7123  0.3389 -2.7333
  141MOL    H6545145   7.216   6.657   7.773 -1.3416  0.6885  0.4023
  141MOL    C6645146   7.401   6.673   7.873 -0.4505 -0.3286 -1.0744
  141MOL    C6745147   7.455   6.543   7.812  0.9015  0.1930 -0.2120
  141MOL    C6845148   7.566   6.540   7.724  0.1742  0.1232  0.1927
  141MOL    C6945149   7.607   6.427   7.654 -0.2803 -0.9547  0.0781
  141MOL   Cl7045150   7.719   6.434   7.527 -0.1928 -0.0738  0.2484
  141MOL    C7145151   7.541   6.306   7.679  0.3704  0.3187 -0.0647
  141MOL    C7245152   7.437   6.304   7.772 -0.2190 -0.6764 -0.9109
  141MOL    C7345153   7.395   6.416   7.846 -0.4784  0.3402 -0.2008
  141MOL    C7445154   7.504   6.773   7.917 -0.1392  0.1167  0.3133
  141MOL    H7545155   7.356   6.652   7.970 -0.3282  0.4057 -0.8574
  141MOL    H7645156   7.615   6.634   7.702 -1.5876  1.3787  1.4730
  141MOL    H7745157   7.569   6.215   7.629 -1.3680 -0.1620 -0.1998
  141MOL    H7845158   7.390   6.207   7.783 -0.9005 -0.4458 -1.6525
  141MOL    H7945159   7.313   6.412   7.916  1.1407 -0.1158  1.7301
  141MOL    H8045160   7.531   6.819   7.822  0.2533  0.5022  0.6034
  141MOL    H8145161   7.458   6.853   7.975  0.2796  0.8062 -0.2925
  141MOL    C8245162   7.626   6.719   8.001  0.0758  0.3578 -0.1013
  141MOL    C8345163   7.741   6.820   7.985 -0.1452  0.5259 -0.6146
  141MOL    C8445164   7.847   6.780   7.894  0.0806 -0.3364  0.5009
  141MOL    C8545165   7.957   6.871   7.871 -0.4468 -0.2369  0.0588
  141MOL   Cl8645166   8.087   6.827   7.762  0.0738 -0.1066  0.1445
  141MOL    C8745167   7.962   6.992   7.938 -0.4391  0.1139 -0.5274
  141MOL    C8845168   7.859   7.029   8.022 -0.0940  0.0452 -0.5367
  141MOL    C8945169   7.748   6.948   8.050  0.2381  0.1078  0.6253
  141MOL    C9045170   7.606   6.689   8.150  0.5399  0.1254  0.4242
  141MOL    H9145171   7.659   6.624   7.960 -0.0561  1.0595 -1.9206
  141MOL    H9245172   7.821   6.691   7.838 -2.8716  1.5380 -1.1673
  141MOL    H9345173   8.044   7.061   7.924  0.2708 -1.0539 -2.3327
  141MOL    H9445174   7.861   7.127   8.068 -1.1382  1.1626 -2.8035
  141MOL    H9545175   7.672   6.989   8.116  0.4683 -0.8080  1.4597
  141MOL    H9645176   7.595   6.773   8.218 -2.2011  1.9020 -2.1047
  141MOL    H9745177   7.504   6.652   8.157  0.4455  0.4696  0.8648
  141MOL    C9845178   7.693   6.576   8.204 -0.8547 -0.0424  0.1560
  141MOL    C9945179   7.691   6.563   8.356  0.2865 -0.0134  0.2577
  141MOL   C10045180   7.571   6.582   8.433  0.2210  0.5163  0.4742
  141MOL   C10145181   7.555   6.571   0.139 -0.2291  0.0257 -0.1052
  141MOL  Cl10245182   7.391   6.575   0.212  0.3494 -0.1613  0.3536
  141MOL   C10345183   7.670   6.534   0.213  0.3831  0.1907 -0.5727
  141MOL   C10445184   7.791   6.508   0.140  0.7233 -1.0713  0.0466
  141MOL   C10545185   7.801   6.522   8.435 -0.1050 -0.4516 -0.0193
  141MOL   C10645186   7.657   6.438   8.145  0.3122 -0.6938  0.3443
  141MOL   H10745187   7.798   6.602   8.191 -0.5861 -0.8393  0.7200
  141MOL   H10845188   7.479   6.612   8.385  0.9124  1.3575 -0.3424
  141MOL   H10945189   7.661   6.537   0.321 -1.5330 -0.4661 -0.7020
  141MOL   H11045190   7.882   6.474   0.188  1.8302  1.1846 -0.3925
  141MOL   H11145191   7.896   6.489   8.395  0.6625  1.1912  0.4044
  141MOL   H11245192   7.575   6.390   8.199  0.0648 -2.9878 -1.9921
  141MOL   H11345193   7.607   6.446   8.049 -0.0911  0.2546  0.6237
  141MOL   C11445194   7.778   6.340   8.136  0.3063 -0.0733  0.5899
  141MOL   C11545195   7.724   6.201   8.124  0.3120 -0.3339 -0.1959
  141MOL   C11645196   7.745   6.096   8.222 -0.3066  0.3364  0.0949
  141MOL   C11745197   7.694   5.964   8.204 -0.1424 -0.0544 -0.0796
  141MOL  Cl11845198   7.744   5.830   8.311 -0.2608 -0.4972 -0.2650
  141MOL   C11945199   7.615   5.937   8.092  0.9116  0.9531  0.4885
  141MOL   C12045200   7.591   6.032   7.993 -0.0940 -1.1442 -0.1298
  141MOL   C12145201   7.651   6.158   8.008 -0.7135  1.0866  0.2225
  141MOL   C12245202   7.866   6.377   8.008  0.4291  0.7302 -0.2740
  141MOL   H12345203   7.841   6.337   8.225  1.9029 -0.1794 -0.5256
  141MOL   H12445204   7.798   6.116   8.314  0.8917  1.5533 -0.8433
  141MOL   H12545205   7.575   5.836   8.092  1.1590  0.8439 -0.8559
  141MOL   H12645206   7.529   6.009   7.907  0.0119 -1.7537 -0.0463
  141MOL   H12745207   7.641   6.227   7.926 -0.2318 -0.5276 -1.2292
  141MOL   H12845208   7.803   6.381   7.918  2.1449  2.8649 -1.4179
  141MOL   H12945209   7.906   6.478   8.016  0.3875  0.7125  0.1593
  141MOL   C13045210   7.984   6.286   7.972 -0.3022  0.3898  0.4963
  141MOL   C13145211   7.999   6.274   7.822 -0.4989  0.2821 -0.9758
  141MOL   C13245212   7.977   6.149   7.761 -0.4885 -0.5633  0.2344
  141MOL   C13345213   7.990   6.142   7.618  0.0234  0.2645 -0.6068
  141MOL  Cl13445214   7.959   5.995   7.537  0.2765 -0.1169 -0.4037
  141MOL   C13545215   8.034   6.254   7.538 -0.4680 -0.2685 -0.9287
  141MOL   C13645216   8.068   6.370   7.610  0.2440  0.3820 -0.2042
  141MOL   C13745217   8.044   6.388   7.746  0.6620  0.2020 -0.6137
  141MOL   C13845218   8.117   6.337   8.029 -0.5293  0.4319 -0.1202
  141MOL   H13945219   7.963   6.190   8.019 -1.4768  0.7919  0.7988
  141MOL   H14045220   7.944   6.061   7.813 -0.4563 -1.4854 -1.2845
  141MOL   H14145221   8.045   6.243   7.431  0.8174 -0.3716 -0.7963
  141MOL   H14245222   8.108   6.456   7.559  0.0112  0.0863 -0.8988
  141MOL   H14345223   8.068   6.484   7.790 -0.0063 -0.9482  2.3759
  141MOL   H14445224   8.205   6.296   7.980 -1.2733 -0.4323 -0.7654
  141MOL   H14545225   8.131   6.441   8.002 -0.5311  0.3996 -0.2451
  141MOL   C14645226   8.144   6.337   8.183 -0.2786  0.7526  0.2954
  141MOL   C14745227   8.125   6.193   8.245  0.3881 -1.0911  0.3133
  141MOL   C14845228   8.205   6.082   8.205  0.8735 -0.2524  0.0322
  141MOL   C14945229   8.197   5.960   8.271 -0.5757  0.5500 -0.1721
  141MOL  Cl15045230   8.295   5.825   8.242 -0.1067 -0.2733  0.4928
  141MOL   C15145231   8.099   5.933   8.370  0.3690 -0.0604  0.6510
  141MOL   C15245232   8.024   6.045   8.419 -0.2256  0.3641 -0.2911
  141MOL   C15345233   8.041   6.179   8.357 -0.2151  0.2766 -0.0847
  141MOL   C15445234   8.284   6.397   8.220 -0.2808 -0.2985 -0.5970
  141MOL   H15545235   8.075   6.409   8.227 -1.4761 -0.3500  0.2443
  141MOL   H15645236   8.274   6.105   8.125  1.3793 -0.5054  0.3927
  141MOL   H15745237   8.090   5.837   8.421  0.7299 -1.3653 -1.6750
  141MOL   H15845238   7.968   6.032   0.075  2.5318  0.7952  1.5213
  141MOL   H15945239   7.983   6.264   8.389 -0.4197 -0.4398  1.5057
  141MOL   H16045240   8.293   6.385   8.328 -3.8685  2.9991  0.1593
  141MOL   H16145241   8.365   6.332   8.185  0.2391 -1.5444  2.7285
  141MOL   C16245242   8.319   6.548   8.194  0.1062 -0.6885  0.3290
  141MOL   C16345243   8.222   6.647   8.256  0.1848  0.0982 -0.4885
  141MOL   C16445244   8.176   6.638   8.393  0.1553 -0.2047  0.7647
  141MOL   C16545245   8.088   6.730   0.014  0.2523  0.1524  0.6436
  141MOL  Cl16645246   8.053   6.715   0.187 -0.2114 -0.0991 -0.3344
  141MOL   C16745247   8.035   6.831   8.360 -0.6842 -0.3488 -0.9930
  141MOL   C16845248   8.086   6.851   8.235  0.1341 -0.4083  0.2619
  141MOL   C16945249   8.173   6.758   8.181 -0.5361  0.4099 -0.7326
  141MOL   C17045250   0.028   6.592   8.219  0.1165  0.2091  0.1193
  141MOL   H17145251   8.315   6.573   8.088  2.8989  2.6467  0.9230
  141MOL   H17245252   8.217   6.561   0.021 -0.7346 -0.3803  1.1329
  141MOL   H17345253   7.958   6.896   8.399 -1.4042 -1.4491 -0.5535
  141MOL   H17445254   8.072   6.940   8.176  1.7930 -0.2844  0.0214
  141MOL   H17545255   8.213   6.769   8.081  1.3646 -1.1162 -0.1974
  141MOL   H17645256   0.044   6.700   8.232  1.1340  0.3943 -2.3969
  141MOL   H17745257   0.053   6.547   8.315  0.7484 -0.4529 -0.3539
  141MOL   C17845258   0.126   6.551   8.100 -0.4517  1.2400 -0.4433
  141MOL   C17945259   0.107   6.641   7.977  0.1277  0.1483 -0.2924
  141MOL   C18045260   0.134   6.782   7.987  0.1577  0.0251 -0.4154
  141MOL   C18145261   0.103   6.868   7.882 -0.5384  0.2308  0.0370
  141MOL  Cl18245262   0.134   7.038   7.890 -0.0965 -0.1438  0.0031
  141MOL   C18345263   0.043   6.817   7.763  0.7246 -0.2056 -0.3477
  141MOL   C18445264   0.009   6.681   7.760 -1.3778  0.3223  0.2923
  141MOL   C18545265   0.045   6.587   7.860 -0.6155  0.6583  0.3139
  141MOL   C18645266   0.274   6.543   8.148 -0.1323 -0.7668  0.2505
  141MOL   H18745267   0.093   6.450   8.075  2.3114 -0.0195  0.6784
  141MOL   H18845268   0.170   6.828   8.078  1.3124 -0.8138 -0.4279
  141MOL   H18945269   0.016   6.874   7.676 -0.9623  0.4261  0.5632
  141MOL   H19045270   8.399   6.643   7.669 -1.1733 -0.1045  0.3689
  141MOL   H19145271   0.022   6.484   7.838 -2.7482  0.8985  1.2033
  141MOL   H19245272   0.322   6.519   8.053  0.5651 -0.0985  0.4311
  141MOL   H19345273   0.313   6.639   8.182  0.3032 -0.7551 -0.2686
  141MOL   C19445274   0.305   6.441   8.260  0.4188  0.2794  0.6153
  141MOL   C19545275   0.240   6.303   8.245  0.3313 -0.0956  0.1379
  141MOL   C19645276   0.177   6.243   8.359 -0.3608 -0.4465 -0.4845
  141MOL   C19745277   0.123   6.110   8.349  0.3799 -0.2905  0.0155
  141MOL  Cl19845278   0.032   6.045   0.044 -0.5741  0.0140 -0.2890
  141MOL   C19945279   0.129   6.043   8.225 -0.3679  0.2737 -0.3012
  141MOL   C20045280   0.205   6.090   8.119 -0.0007 -0.3997 -0.3495
  141MOL   C20145281   0.257   6.225   8.125  0.1184  0.1320  0.6813
  141MOL   C20245282   0.461   6.431   8.274  0.3143 -0.1017 -0.6238
  141MOL   H20345283   0.268   6.478   8.356 -0.3619  0.8207  0.1119
  141MOL   H20445284   0.189   6.295   0.018  0.3563 -0.5003 -0.5490
  141MOL   H20545285   0.082   5.946   8.213  0.1083 -0.0618  0.4932
  141MOL   H20645286   0.224   6.031   8.031 -0.2942 -0.4737 -0.3602
  141MOL   H20745287   0.306   6.268   8.040 -2.4262 -0.1012 -0.9556
  141MOL   H20845288   0.485   6.331   8.310 -1.0305 -0.0091  0.6190
  141MOL   H20945289   0.507   6.432   8.176  2.1169  1.5090  0.1996
  141MOL   C21045290   0.524   6.509   8.389  0.5101 -0.2558 -0.5801
  141MOL   C21145291   0.477   6.451   0.088 -0.2940  0.1394  0.3314
  141MOL   C21245292   0.380   6.513   0.166 -0.1729  0.1498  0.0864
  141MOL   C21345293   0.336   6.463   0.291  0.0919 -0.5811 -0.4079
  141MOL  Cl21445294   0.247   6.565   0.391  0.2018 -0.1184  0.3415
  141MOL   C21545295   0.387   6.341   0.338  0.3620 -0.6916 -0.7355
  141MOL   C21645296   0.480   6.278   0.262 -0.3332  0.1282  0.5715
  141MOL   C21745297   0.529   6.326   0.132 -0.4631  0.1831 -0.0858
  141MOL   C21845298   0.677   6.543   8.389  0.4772  0.8370 -0.2477
  141MOL   H21945299   0.475   6.607   8.382 -0.5254 -0.7136  0.0729
  141MOL   H22045300   0.338   6.609   0.140  0.8099  0.0811 -1.8316
  141MOL   H22145301   0.369   6.302   0.437 -1.1305 -0.0639 -0.7491
  141MOL   H22245302   0.533   6.190   0.297 -2.1607 -2.6820 -3.2800
  141MOL   H22345303   0.592   6.267   0.067  1.0930  0.3687  1.2167
  141MOL   H22445304   0.702   6.627   0.019  0.5244  0.1584  0.6213
  141MOL   H22545305   0.743   6.462   8.421  0.5989  0.3047 -1.8273
  141MOL   C22645306   0.734   6.573   8.250  1.3067 -0.2836 -0.5074
  141MOL   C22745307   0.641   6.660   8.155  0.1631  0.1311 -0.1543
  141MOL   C22845308   0.619   6.609   8.027 -1.0226  0.1128 -0.1750
  141MOL   C22945309   0.553   6.698   7.944  0.3134  0.1695 -0.0055
  141MOL  Cl23045310   0.530   6.648   7.777 -0.1913  0.0973 -0.1244
  141MOL   C23145311   0.493   6.818   7.996 -0.3861 -0.3197 -0.1878
  141MOL   C23245312   0.509   6.865   8.124 -0.7722 -0.0100  0.2440
  141MOL   C23345313   0.584   6.782   8.206  0.5940  0.1915 -0.2199
  141MOL   C23445314   0.866   6.659   8.261 -0.5451 -0.0663  0.1738
  141MOL   H23545315   0.753   6.476   8.206  1.8735  0.3810 -1.7591
  141MOL   H23645316   0.665   6.514   8.002 -2.4417 -1.4117  2.7867
  141MOL   H23745317   0.435   6.879   7.928 -0.2064 -0.7986 -0.7818
  141MOL   H23845318   0.454   6.946   8.169 -0.5645  1.6632 -2.4090
  141MOL   H23945319   0.599   6.827   8.303 -0.2807  1.6314 -0.7362
  141MOL   H24045320   0.869   6.723   8.172 -1.0762 -1.1438 -0.6234
  141MOL   H24145321   0.876   6.727   8.345  0.3925 -0.2714  0.2423
  141MOL   C24245322   0.995   6.577   8.239  0.0528 -0.2126 -0.6582
  141MOL   C24345323   0.991   6.506   8.107 -0.2571 -0.0171  0.1857
  141MOL   C24445324   0.970   6.571   7.984 -0.2309  0.3858  0.3986
  141MOL   C24545325   0.947   6.490   7.869 -0.0404 -0.8917 -0.4889
  141MOL  Cl24645326   0.913   6.572   7.720  0.3511  0.3022 -0.0720
  141MOL   C24745327   0.973   6.353   7.864 -0.1791  1.2086  0.5762
  141MOL   C24845328   0.996   6.288   7.986  0.6872  0.5197  0.0627
  141MOL   C24945329   1.006   6.364   8.111 -0.1081  0.3298  0.4095
  141MOL   C25045330   1.131   6.653   8.250  0.4407 -0.2413  0.5452
  141MOL   H25145331   0.992   6.500   8.316  0.3120  1.9048  1.5304
  141MOL   H25245332   0.962   6.678   7.981 -1.8665  0.2381 -1.9375
  141MOL   H25345333   0.962   6.304   7.769 -2.0968  1.8969  0.4251
  141MOL   H25445334   0.999   6.180   7.984  0.6794  0.4730  1.5298
  141MOL   H25545335   1.029   6.311   8.202 -0.0634 -1.1709 -0.4576
  141MOL   H25645336   1.208   6.583   8.216  1.1239  0.3121  0.9400
  141MOL   H25745337   1.136   6.744   8.191 -0.0107 -1.0585 -0.7958
  141MOL   C25845338   1.192   6.673   8.393 -0.1621  0.9816 -0.2438
  141MOL   C25945339   1.344   6.690   8.387 -0.4065 -0.0934  0.4365
  141MOL   C26045340   1.395   6.780   8.293 -0.0894  0.3338  0.0490
  141MOL   C26145341   1.531   6.796   8.279 -0.7543 -0.0758 -0.1135
  141MOL  Cl26245342   1.595   6.917   8.175 -0.0963  0.1582  0.0330
  141MOL   C26345343   1.624   6.724   8.363 -0.5520 -0.2129 -0.6405
  141MOL   C26445344   1.571   6.638   0.023  0.5641 -0.1262 -0.4655
  141MOL   C26545345   1.432   6.620   0.032  0.1227  0.8147 -0.8702
  141MOL   C26645346   1.128   6.797   0.031 -0.0963  0.2367  0.1261
  141MOL   H26745347   1.172   6.581   0.013  3.6459 -0.1796 -0.6378
  141MOL   H26845348   1.332   6.838   8.228  1.6048 -0.0200 -1.9596
  141MOL   H26945349   1.726   6.758   8.357 -0.5800 -0.0787 -0.3787
  141MOL   H27045350   1.633   6.576   0.086 -0.8241  0.4237  1.5035
  141MOL   H27145351   1.391   6.548   0.101  1.7349  0.1581 -0.5683
  141MOL   H27245352   1.210   6.864   0.054 -0.4860  1.5455 -2.1190
  141MOL   H27345353   1.070   6.859   8.397  1.1237  1.4682  0.1956
  141MOL   C27445354   1.050   6.760   0.162 -0.1933 -0.8072  0.1126
  141MOL   C27545355   1.131   6.670   0.250 -0.0584 -0.1069  0.1088
  141MOL   C27645356   1.247   6.717   0.311 -0.2035  0.0659 -0.1579
  141MOL   C27745357   1.320   6.638   0.399  0.5993 -0.4837  0.2636
  141MOL  Cl27845358   1.461   6.685   0.489 -0.4461  0.0527 -0.1998
  141MOL   C27945359   1.284   6.502   0.409  0.1048 -0.3723  0.8201
  141MOL   C28045360   1.167   6.452   0.347  0.4639  0.2715  0.0189
  141MOL   C28145361   1.088   6.541   0.268 -1.4384 -0.0895  0.0828
  141MOL   C28245362   0.985   6.886   0.245 -0.0851 -0.4677  0.5014
  141MOL   H28345363   0.965   6.705   0.121 -0.5463  0.5937 -1.1183
  141MOL   H28445364   1.279   6.818   0.291 -2.8650  0.8712 -0.5668
  141MOL   H28545365   1.352   6.433   0.457  0.0250 -1.2127 -0.2652
  141MOL   H28645366   1.142   6.347   0.354  2.1900 -0.2785 -1.8492
  141MOL   H28745367   0.993   6.506   0.229 -1.1231  0.1531 -0.9068
  141MOL   H28845368   1.075   6.925   0.292  0.1567  1.0524 -1.1759
  141MOL   H28945369   0.950   6.965   0.179  0.7826 -1.1615 -0.8153
  141MOL   C29045370   0.871   6.839   0.334  0.5944 -0.3113  0.4045
  141MOL   C29145371   0.849   6.940   0.440  0.2540  0.5619  0.0218
  141MOL   C29245372   0.802   7.074   0.422 -0.5717 -0.5330 -0.2264
  141MOL   C29345373   0.785   7.157   0.535 -0.6388  0.1122  0.5911
  141MOL  Cl29445374   0.727   7.317   0.512  0.0068  0.0393 -0.0685
  141MOL   C29545375   0.809   7.100   0.666  0.3736 -0.1702  0.4969
  141MOL   C29645376   0.873   6.977   0.683 -0.3532  0.4061 -0.1475
  141MOL   C29745377   0.888   6.896   0.572  0.0803 -0.1775 -0.2062
  141MOL   C29845378   0.732   6.818   0.263 -0.2343 -0.3370 -0.8642
  141MOL   H29945379   0.907   6.745   0.377  1.8596  0.0594  0.1544
  141MOL   H30045380   0.773   7.108   0.324 -0.2376 -0.2207 -0.2170
  141MOL   H30145381   0.784   7.156   0.755 -1.2651 -1.2735  0.7461
  141MOL   H30245382   0.888   6.928   0.778  1.9746 -0.5348 -0.9720
  141MOL   H30345383   0.929   6.796   0.579  0.2142  0.0245  2.5344
  141MOL   H30445384   0.700   6.917   0.229 -1.1449  0.2706  1.7066
  141MOL   H30545385   0.751   6.762   0.171  2.3114 -0.4866 -0.2797
  141MOL   C30645386   0.634   6.731   0.341  0.5854  0.7475 -0.4953
  141MOL   C30745387   0.692   6.608   0.413  0.0716  0.1350 -0.7320
  141MOL   C30845388   0.730   6.495   0.333 -0.1271  0.4264  0.4065
  141MOL   C30945389   0.781   6.377   0.400 -0.6867  0.6640 -0.3899
  141MOL  Cl31045390   0.816   6.227   0.317  0.5594  0.2675  0.0866
  141MOL   C31145391   0.787   6.373   0.539  0.3049  0.1915 -0.5680
  141MOL   C31245392   0.749   6.480   0.623  0.2048  0.0956 -0.7629
  141MOL   C31345393   0.708   6.603   0.559 -0.5266  0.3396  0.0973
  141MOL   C31445394   0.535   6.810   0.423 -0.5008 -0.5812 -1.6094
  141MOL   H31545395   0.570   6.679   0.269  0.4884 -0.1437  0.2172
  141MOL   H31645396   0.716   6.503   0.226  0.5537 -2.4057  0.0596
  141MOL   H31745397   0.820   6.279   0.581  2.0772  1.5271  1.0782
  141MOL   H31845398   0.750   6.463   0.729  1.4798  0.9275 -0.6193
  141MOL   H31945399   0.683   6.681   0.629  3.7755  0.7130  1.3368
  141MOL   H32045400   0.591   6.877   0.488 -0.2561 -2.6228  0.3302
  141MOL   H32145401   0.465   6.874   0.369 -1.1786  0.9580  1.0164
  141MOL   H32245402   0.479   6.745   0.490  2.0808  0.1225  1.3801
  142MOL     C145403   5.734   5.384   2.839  0.0961 -0.4529 -0.3271
  142MOL     C245404   5.697   5.250   2.898  0.0995 -0.3101 -0.2743
  142MOL     C345405   5.656   5.244   3.033  0.1734  0.2479  0.2858
  142MOL     C445406   5.639   5.116   3.086 -0.2457 -0.5699  0.1346
  142MOL    Cl545407   5.576   5.100   3.246  0.3657 -0.1486  0.1653
  142MOL     C645408   5.676   5.000   3.020  0.1713 -0.0707 -0.1815
  142MOL     C745409   5.719   5.012   2.889 -0.3854 -0.2159  0.5493
  142MOL     C845410   5.721   5.133   2.824  0.2771 -0.2046 -0.2143
  142MOL     C945411   5.865   5.445   2.903 -0.3494 -0.8562  0.0045
  142MOL    H1045412   5.652   5.454   2.861 -0.6574 -2.2356  2.9337
  142MOL    H1145413   5.623   5.333   3.085 -1.8572 -0.1221 -0.3202
  142MOL    H1245414   5.671   4.906   3.073  0.7626 -0.2137 -0.3739
  142MOL    H1345415   5.748   4.930   2.826  1.3896  0.7903  0.0451
  142MOL    H1445416   5.757   5.152   2.724 -2.8826  0.2203 -1.3561
  142MOL    H1545417   5.875   5.414   3.007 -0.9919  0.0982  0.3567
  142MOL    H1645418   5.949   5.394   2.856 -0.7673 -1.4299 -0.1273
  142MOL    H1745419   5.745   5.388   2.731  0.6223  1.6523 -0.2161
  142MOL    C1845420   5.894   5.599   2.889 -0.2365  0.6976  0.4098
  142MOL    C1945421   5.794   5.679   2.969  0.3603  0.2448  0.4086
  142MOL    C2045422   5.769   5.650   3.107 -1.1092 -0.5224 -0.0922
  142MOL    C2145423   5.686   5.732   3.183  0.0554 -0.0344 -0.5045
  142MOL   Cl2245424   5.681   5.711   3.350  0.1565 -0.0025  0.0553
  142MOL    C2345425   5.615   5.840   3.117  0.4829  0.6348  0.2616
  142MOL    C2445426   5.619   5.847   2.982 -0.0178  0.6360 -0.2484
  142MOL    C2545427   5.710   5.771   2.907 -0.7552 -0.2531 -0.3354
  142MOL    C2645428   6.040   5.640   2.923  0.5695  0.3877 -0.5549
  142MOL    H2745429   5.865   5.608   2.785  2.4675  2.6463 -0.2360
  142MOL    H2845430   5.829   5.570   3.149  1.3984  1.3493  0.0206
  142MOL    H2945431   5.564   5.921   3.166  0.5266  0.3923  0.7109
  142MOL    H3045432   5.560   5.920   2.928 -1.1832 -0.9427 -1.1764
  142MOL    H3145433   5.725   5.797   2.804  0.8614  0.8346  0.1538
  142MOL    H3245434   6.053   5.748   2.932  1.2770  0.3603 -1.2638
  142MOL    H3345435   6.053   5.610   3.027  1.4114 -0.9533 -1.0285
  142MOL    C3445436   6.158   5.566   2.849 -0.5202  0.0140  1.0102
  142MOL    C3545437   6.173   5.613   2.711 -0.6083 -0.4524 -0.0622
  142MOL    C3645438   6.196   5.526   2.607  0.5087 -0.2868 -0.0219
  142MOL    C3745439   6.227   5.578   2.483 -0.8183  0.2241  0.2977
  142MOL   Cl3845440   6.239   5.456   2.364 -0.2455 -0.0058  0.3901
  142MOL    C3945441   6.228   5.714   2.450 -0.5806 -0.8371 -0.1702
  142MOL    C4045442   6.183   5.798   2.550 -0.7869 -0.8294 -0.0704
  142MOL    C4145443   6.161   5.747   2.679  1.1396  0.0894 -0.1082
  142MOL    C4245444   6.299   5.594   2.911  0.6136  0.2648  0.9879
  142MOL    H4345445   6.143   5.458   2.860  1.6953 -0.2372  1.7287
  142MOL    H4445446   6.206   5.419   2.619 -2.0844 -0.5225  0.3006
  142MOL    H4545447   6.245   5.745   2.348 -2.1037 -1.0956 -0.5222
  142MOL    H4645448   6.172   5.903   2.528 -0.2015 -0.4778  1.2788
  142MOL    H4745449   6.123   5.816   2.753  0.3893 -0.6952  0.2505
  142MOL    H4845450   6.379   5.548   2.852 -1.1162 -1.5979  0.0214
  142MOL    H4945451   6.326   5.699   2.905  2.6731 -0.1914  1.5654
  142MOL    C5045452   6.329   5.548   3.054  0.3141 -0.2008  0.5086
  142MOL    C5145453   6.312   5.399   3.058 -0.1225  0.1281  0.3327
  142MOL    C5245454   6.190   5.350   3.120  0.2603  0.3198  0.3683
  142MOL    C5345455   6.177   5.215   3.138 -0.1868  0.3504 -0.1127
  142MOL   Cl5445456   6.047   5.159   3.231  0.5054 -0.3065 -0.0661
  142MOL    C5545457   6.278   5.129   3.097 -0.6329 -0.3806  0.3583
  142MOL    C5645458   6.393   5.172   3.031  0.8255 -0.8963 -0.4568
  142MOL    C5745459   6.413   5.310   3.017 -0.8751 -0.4233  0.2855
  142MOL    C5845460   6.478   5.589   3.092  0.0027  0.2391 -0.2348
  142MOL    H5945461   6.255   5.599   3.116  1.6802  1.1432  1.0659
  142MOL    H6045462   6.118   5.421   3.158 -1.4854 -2.2466  2.0344
  142MOL    H6145463   6.259   5.023   3.087  1.2313 -0.7314  0.2741
  142MOL    H6245464   6.459   5.093   2.999 -0.8109 -2.5621  0.2294
  142MOL    H6345465   6.508   5.333   2.971 -1.2634  0.0374 -0.2881
  142MOL    H6445466   6.552   5.545   3.026 -0.5095  1.9811 -2.0235
  142MOL    H6545467   6.498   5.694   3.072  1.0843  0.2106  0.6213
  142MOL    C6645468   6.501   5.558   3.242  0.5997 -0.1483 -0.5673
  142MOL    C6745469   6.562   5.421   3.265  0.0076 -0.5048 -0.1976
  142MOL    C6845470   6.486   5.312   3.314  0.7650  0.0694 -0.4828
  142MOL    C6945471   6.544   5.181   3.326 -0.4633 -0.0908  0.5711
  142MOL   Cl7045472   6.447   5.045   3.376 -0.3421 -0.3112  0.1795
  142MOL    C7145473   6.670   5.160   3.278 -0.0221  0.3303  0.3131
  142MOL    C7245474   6.739   5.260   3.213 -0.2050  0.0563 -0.1513
  142MOL    C7345475   6.691   5.393   3.214  0.5401  0.5444 -0.2049
  142MOL    C7445476   6.589   5.672   3.301  0.3037 -0.4022 -0.6039
  142MOL    H7545477   6.405   5.568   3.293  1.7016 -1.1362  1.7769
  142MOL    H7645478   6.380   5.313   3.333  0.8069  1.8284 -0.2652
  142MOL    H7745479   6.703   5.057   3.278 -0.5272  0.1563 -0.8402
  142MOL    H7845480   6.835   5.253   3.164 -1.2099  0.4394 -2.2644
  142MOL    H7945481   6.764   5.466   3.180  1.2347  0.2148  0.5744
  142MOL    H8045482   6.667   5.702   3.231 -2.1504  1.4313 -2.6170
  142MOL    H8145483   6.535   5.766   3.307 -0.4450 -0.6273 -3.2386
  142MOL    C8245484   6.646   5.635   3.445  0.7602 -0.1095  0.2094
  142MOL    C8345485   6.765   5.729   3.471 -0.1773 -0.2990 -0.0209
  142MOL    C8445486   6.741   5.865   3.491  0.0913  0.0170  0.2384
  142MOL    C8545487   6.855   5.950   3.515  0.2579 -0.6179  0.1184
  142MOL   Cl8645488   6.840   6.119   3.544  0.2396 -0.1352  0.3556
  142MOL    C8745489   6.983   5.895   3.515  0.3710 -0.0798 -0.3729
  142MOL    C8845490   7.004   5.757   3.495  0.0263 -0.7620  0.5227
  142MOL    C8945491   6.894   5.675   3.477 -0.4887  1.2815 -0.3645
  142MOL    C9045492   6.546   5.623   3.557 -0.8958 -0.0851  0.2092
  142MOL    H9145493   6.681   5.532   3.441 -1.0231 -0.8854  2.7718
  142MOL    H9245494   6.646   5.915   3.484 -1.1948 -2.1318  2.0293
  142MOL    H9345495   7.071   5.957   3.527  0.5527 -0.4760  0.4054
  142MOL    H9445496   7.104   5.717   3.481 -0.6728 -2.1660 -0.5160
  142MOL    H9545497   6.912   5.569   3.474  0.0692  1.3401  0.7543
  142MOL    H9645498   6.506   5.720   3.588 -0.0642  0.2715  0.1995
  142MOL    H9745499   6.457   5.569   3.526 -0.5459  0.5835 -2.0156
  142MOL    C9845500   6.600   5.568   3.692 -0.0879 -0.3071  0.5682
  142MOL    C9945501   6.509   5.591   3.809 -0.3562 -0.0225 -0.1066
  142MOL   C10045502   6.373   5.560   3.804  0.7901 -0.3202 -0.8629
  142MOL   C10145503   6.285   5.598   3.905 -0.8093  0.4988 -0.5834
  142MOL  Cl10245504   6.114   5.579   3.877  0.4120  0.1384 -0.2102
  142MOL   C10345505   6.332   5.649   4.024  0.0446  0.2247  0.1474
  142MOL   C10445506   6.474   5.663   4.041  0.3828  0.3558  0.4984
  142MOL   C10545507   6.563   5.635   3.933 -0.0087  0.3882 -0.0732
  142MOL   C10645508   6.621   5.411   3.680 -0.7472  0.1997  0.5947
  142MOL   H10745509   6.694   5.622   3.709  0.4994 -1.3515  0.7358
  142MOL   H10845510   6.330   5.529   3.709  0.6276 -2.5893 -0.0814
  142MOL   H10945511   6.270   5.678   4.108 -0.6421 -1.3753  0.2064
  142MOL   H11045512   6.514   5.706   4.133 -0.7029  0.7303  0.8047
  142MOL   H11145513   6.668   5.660   3.935  0.3462 -1.0831  0.1955
  142MOL   H11245514   6.570   5.346   3.752 -0.4339 -2.6786 -1.6948
  142MOL   H11345515   6.558   5.378   3.597  1.4243  2.8834 -2.2221
  142MOL   C11445516   6.768   5.366   3.687 -0.5266 -0.6708 -1.0330
  142MOL   C11545517   6.843   5.418   3.811 -0.1991 -0.0554  0.5270
  142MOL   C11645518   6.946   5.512   3.805 -0.1223 -0.1897 -0.8775
  142MOL   C11745519   6.994   5.566   3.927  0.5228  1.1868  0.9975
  142MOL  Cl11845520   7.118   5.686   3.929 -0.0206 -0.0341  0.0118
  142MOL   C11945521   6.944   5.528   4.052  0.0449  0.1486  0.6902
  142MOL   C12045522   6.863   5.417   4.055 -0.6376  0.3708 -0.4634
  142MOL   C12145523   6.814   5.364   3.938 -0.4112  0.5564  0.8578
  142MOL   C12245524   6.785   5.205   3.684  1.2390 -0.7531 -0.2209
  142MOL   H12345525   6.822   5.403   3.600  0.9186  1.4168  0.6902
  142MOL   H12445526   6.980   5.537   3.706 -0.7790  1.2548 -0.7535
  142MOL   H12545527   6.996   5.567   4.139  1.3462 -0.4284  0.1646
  142MOL   H12645528   6.832   5.370   4.147 -0.7628  0.4553 -0.4637
  142MOL   H12745529   6.742   5.284   3.945  0.5768 -0.3414  0.7394
  142MOL   H12845530   6.749   5.160   3.777  1.7443 -1.2087 -0.2444
  142MOL   H12945531   6.712   5.167   3.612  0.9760  0.3803 -0.5541
  142MOL   C13045532   6.920   5.165   3.633  0.1881 -0.4173 -0.1807
  142MOL   C13145533   6.934   5.015   3.650 -0.4691 -0.6560  0.1609
  142MOL   C13245534   6.867   4.926   3.562 -1.0009 -0.1941  0.1745
  142MOL   C13345535   6.876   4.786   3.589  0.5947  0.0154  0.0209
  142MOL  Cl13445536   6.777   4.681   3.498  0.2348  0.3822 -0.3714
  142MOL   C13545537   6.946   4.738   3.702  0.4851  0.0888 -0.0392
  142MOL   C13645538   7.004   4.825   3.791  0.2562  0.2002 -0.6715
  142MOL   C13745539   7.006   4.963   3.763  0.4939  0.1639 -0.2127
  142MOL   C13845540   6.958   5.195   3.486  0.0327  0.6375 -0.2655
  142MOL   H13945541   6.992   5.214   3.699 -0.5977 -0.8802  1.0362
  142MOL   H14045542   6.811   4.949   3.473 -0.2432  1.4865  0.1164
  142MOL   H14145543   6.945   4.633   3.728 -1.6308 -0.3425 -1.7632
  142MOL   H14245544   7.053   4.786   3.880  0.7444 -0.0770 -1.0572
  142MOL   H14345545   7.055   5.034   3.827  0.8482 -0.6966  0.4711
  142MOL   H14445546   6.922   5.125   3.410 -0.0057 -0.1486  0.4671
  142MOL   H14545547   6.920   5.292   3.452 -0.0429  0.1401 -1.6398
  142MOL   C14645548   7.108   5.214   3.451  0.1362 -0.2731  0.0258
  142MOL   C14745549   7.167   5.349   3.477 -0.5779 -0.2085  0.0377
  142MOL   C14845550   7.210   5.430   3.366 -0.4126  0.0921 -0.2872
  142MOL   C14945551   7.292   5.540   3.387 -0.0591 -0.0950 -0.0392
  142MOL  Cl15045552   7.358   5.622   3.257 -0.3055 -0.1502 -0.0525
  142MOL   C15145553   7.328   5.582   3.517  0.0194 -0.1628  0.3300
  142MOL   C15245554   7.283   5.501   3.628  0.0858 -0.3470  0.3324
  142MOL   C15345555   7.199   5.389   3.604  0.1453 -0.2047  0.2244
  142MOL   C15445556   7.199   5.103   3.503  0.1826  0.5713  0.7888
  142MOL   H15545557   7.108   5.218   3.343 -2.7317 -1.3890 -0.0570
  142MOL   H15645558   7.189   5.398   3.265 -1.2469  1.9938 -0.7240
  142MOL   H15745559   7.400   5.662   3.528 -2.1987  1.7815  0.9926
  142MOL   H15845560   7.328   5.531   3.722  0.0535 -1.0449  0.5714
  142MOL   H15945561   7.161   5.327   3.684 -0.7211 -1.8222 -1.4107
  142MOL   H16045562   7.198   5.106   3.612  0.1542  0.0178  0.8036
  142MOL   H16145563   7.154   5.011   3.466 -1.3455  1.4621  0.3755
  142MOL   C16245564   7.355   5.112   3.468  0.5760  0.2950  0.1919
  142MOL   C16345565   7.435   5.006   3.553 -0.6821 -0.2891  0.0369
  142MOL   C16445566   7.391   4.871   3.581 -0.3096  0.2658  1.3641
  142MOL   C16545567   7.468   4.785   3.663  0.0314  0.6389 -0.1178
  142MOL  Cl16645568   7.438   4.617   3.673 -0.3214  0.3041  0.1607
  142MOL   C16745569   7.590   4.831   3.726  0.5473 -0.1835 -0.1463
  142MOL   C16845570   7.632   4.964   3.698 -0.2075  0.9559 -0.3250
  142MOL   C16945571   7.553   5.051   3.623 -0.2492  0.5581  0.6958
  142MOL   C17045572   7.379   5.103   3.313 -0.7441 -0.4295  0.2807
  142MOL   H17145573   7.390   5.211   3.498  0.0829  1.3843 -2.7196
  142MOL   H17245574   7.302   4.833   3.533  0.3437  3.5433 -2.7768
  142MOL   H17345575   7.649   4.758   3.779 -1.3612 -1.9529 -0.3692
  142MOL   H17445576   7.725   4.992   3.745  1.7562 -0.2246 -3.3637
  142MOL   H17545577   7.588   5.152   3.617  2.1113 -0.3222 -0.9435
  142MOL   H17645578   7.353   5.005   3.274  0.8929 -0.4013 -0.9360
  142MOL   H17745579   7.311   5.173   3.264  0.4591 -0.1633 -1.0174
  142MOL   C17845580   7.517   5.142   3.254 -0.2808  0.0528 -0.1122
  142MOL   C17945581   7.511   5.114   3.105 -0.3610 -0.4554 -0.2165
  142MOL   C18045582   7.437   5.187   3.015 -0.1032  0.1550  0.1283
  142MOL   C18145583   7.442   5.161   2.879  0.4573  0.2312  0.0932
  142MOL  Cl18245584   7.340   5.248   2.781 -0.1834 -0.2145 -0.5626
  142MOL   C18345585   7.519   5.051   2.826  0.7321 -0.4043 -0.1720
  142MOL   C18445586   7.592   4.972   2.911 -0.6073  0.3579  0.3867
  142MOL   C18545587   7.587   5.000   3.054  0.7136 -0.1598 -0.0690
  142MOL   C18645588   7.573   5.286   3.289 -0.1156 -0.3339 -0.5593
  142MOL   H18745589   7.580   5.067   3.303 -0.1870  0.8581  1.0215
  142MOL   H18845590   7.365   5.259   3.052 -0.0467  0.3875 -0.2061
  142MOL   H18945591   7.520   5.034   2.719  0.4211  1.5663 -0.5065
  142MOL   H19045592   7.647   4.884   2.880  0.6344  1.3369 -0.2103
  142MOL   H19145593   7.653   4.942   3.117  0.7479  0.7403  0.7304
  142MOL   H19245594   7.526   5.356   3.219  1.5666 -0.6891 -2.0595
  142MOL   H19345595   7.539   5.306   3.391 -0.3694  1.0286 -0.8934
  142MOL   C19445596   7.725   5.295   3.299 -0.2923  0.0845  1.0497
  142MOL   C19545597   7.800   5.220   3.187 -0.1570  0.2684  0.1142
  142MOL   C19645598   7.782   5.258   3.058  0.2328 -0.7974  0.1877
  142MOL   C19745599   7.856   5.197   2.957  0.5636  0.3608 -0.5475
  142MOL  Cl19845600   7.822   5.239   2.796  0.2086  0.5620  0.0102
  142MOL   C19945601   7.952   5.098   2.984  0.0160  0.5925 -0.1990
  142MOL   C20045602   7.968   5.054   3.118 -0.7299 -0.7991  0.4581
  142MOL   C20145603   7.886   5.116   3.215 -0.0044  0.3284  0.1291
  142MOL   C20245604   7.780   5.438   3.315 -0.2184  0.2429 -1.0010
  142MOL   H20345605   7.756   5.234   3.384  2.3426  1.0405  0.8215
  142MOL   H20445606   7.716   5.340   3.033  1.7807  1.2135  2.5385
  142MOL   H20545607   7.991   5.047   2.897 -0.8121 -1.0092  0.3409
  142MOL   H20645608   8.029   4.966   3.129 -0.8483 -0.8321  0.8808
  142MOL   H20745609   7.892   5.080   3.317  4.3768  0.8470  0.1636
  142MOL   H20845610   7.887   5.450   3.300  0.5046 -0.5329  3.0856
  142MOL   H20945611   7.738   5.490   3.229  0.1659 -0.7400 -1.7947
  142MOL   C21045612   7.756   5.507   3.446  0.1278 -0.0912  0.8638
  142MOL   C21145613   7.766   5.425   3.579 -0.0530 -0.1764  0.4677
  142MOL   C21245614   7.879   5.340   3.593 -0.3449  0.6766  0.0180
  142MOL   C21345615   7.879   5.243   3.695  0.6142 -0.3996 -0.5135
  142MOL  Cl21445616   7.997   5.117   3.695  0.0249 -0.5152 -0.0767
  142MOL   C21545617   7.785   5.247   3.798 -1.2296 -0.1704 -0.3522
  142MOL   C21645618   7.685   5.345   3.799 -0.1502 -0.3351 -0.7702
  142MOL   C21745619   7.678   5.434   3.688  0.6305  0.1129  0.1322
  142MOL   C21845620   7.851   5.631   3.454  0.1564 -0.2361  0.6163
  142MOL   H21945621   7.658   5.554   3.453  0.4335  0.6040  0.4314
  142MOL   H22045622   7.961   5.333   3.522 -0.4290  2.0827 -0.2155
  142MOL   H22145623   7.774   5.178   3.881 -0.3085 -1.2846 -1.1333
  142MOL   H22245624   7.625   5.358   3.888  0.7507 -1.2805 -0.0090
  142MOL   H22345625   7.592   5.498   3.696 -1.1460 -2.1603 -0.2786
  142MOL   H22445626   7.879   5.640   3.559  0.1854  2.6074  0.3849
  142MOL   H22545627   7.952   5.624   3.414 -0.1166 -0.2085 -0.0717
  142MOL   C22645628   7.783   5.772   3.432  0.3161  0.7756  0.2026
  142MOL   C22745629   7.837   5.867   3.548  0.0857  0.3994 -0.6587
  142MOL   C22845630   7.753   5.910   3.652  0.3862 -0.7729 -0.0708
  142MOL   C22945631   7.801   5.995   3.750  0.2776  0.0610 -0.4935
  142MOL  Cl23045632   7.702   6.059   3.869 -0.1296  0.1721 -0.0836
  142MOL   C23145633   7.934   6.029   3.749  0.2108 -0.8600  0.1876
  142MOL   C23245634   8.024   5.984   3.650 -0.3692  0.3019 -0.6366
  142MOL   C23345635   7.979   5.889   3.555  0.9715 -0.4535 -0.4291
  142MOL   C23445636   7.809   5.831   3.287 -0.0476  0.0861 -0.6878
  142MOL   H23545637   7.680   5.754   3.461  0.1494  1.6336  0.1468
  142MOL   H23645638   7.648   5.885   3.655  0.7891 -2.4062  0.5943
  142MOL   H23745639   7.981   6.083   3.830 -0.1829  0.6248 -0.5551
  142MOL   H23845640   8.131   5.996   3.659 -0.5250  1.9550 -0.9887
  142MOL   H23945641   8.045   5.843   3.484  2.0846  0.3061  0.0957
  142MOL   H24045642   7.910   5.867   3.266  0.5194 -0.2033  1.4170
  142MOL   H24145643   7.773   5.757   3.216 -1.5409  1.1977 -1.1243
  142MOL   C24245644   7.715   5.946   3.244 -0.0780  0.5912 -0.7638
  142MOL   C24345645   7.728   6.068   3.344  0.4278  0.8803  0.1423
  142MOL   C24445646   7.615   6.110   3.413  0.2489 -0.3684 -0.6786
  142MOL   C24545647   7.621   6.204   3.518 -0.2903  0.1431  0.6343
  142MOL  Cl24645648   7.487   6.240   3.602 -0.3197  0.2160  0.1839
  142MOL   C24745649   7.743   6.266   3.557  0.4051  0.5492 -0.2945
  142MOL   C24845650   7.852   6.237   3.472  0.0395 -0.3416  0.9518
  142MOL   C24945651   7.849   6.141   3.366  0.5247 -0.1822  0.3094
  142MOL   C25045652   7.735   5.986   3.100 -0.1831 -0.1976 -0.3069
  142MOL   H25145653   7.620   5.895   3.259 -0.2499  1.5093  1.4285
  142MOL   H25245654   7.523   6.062   3.385 -0.9366  1.1225  0.5863
  142MOL   H25345655   7.742   6.339   3.636 -1.6569 -1.9888  2.1624
  142MOL   H25445656   7.944   6.289   3.495 -0.0888  1.9783 -3.2851
  142MOL   H25545657   7.935   6.113   3.307  0.1930  0.5937 -0.5573
  142MOL   H25645658   7.824   6.041   3.068  0.2567 -0.8066 -0.1328
  142MOL   H25745659   7.749   5.893   3.045  0.7612  0.7284 -1.6791
  142MOL   C25845660   7.608   6.046   3.034 -0.2771  0.1695 -0.0303
  142MOL   C25945661   7.481   5.968   3.040 -0.0058 -0.1207  0.3796
  142MOL   C26045662   7.463   5.853   2.961 -0.5649  0.2924 -0.1115
  142MOL   C26145663   7.345   5.777   2.961 -0.3839 -0.1996  0.0135
  142MOL  Cl26245664   7.337   5.623   2.870  0.2197 -0.1253  0.0997
  142MOL   C26345665   7.237   5.826   3.034  0.3907 -0.2882 -0.5310
  142MOL   C26445666   7.252   5.947   3.108 -0.3268  0.0128 -0.1885
  142MOL   C26545667   7.373   6.011   3.123 -0.0677  0.7630  0.4146
  142MOL   C26645668   7.603   6.201   3.057 -0.2931 -0.3823 -0.5926
  142MOL   H26745669   7.635   6.044   2.928 -0.8476  0.9935 -0.1862
  142MOL   H26845670   7.551   5.817   2.910 -0.8040  1.6238 -1.4773
  142MOL   H26945671   7.139   5.782   3.035  0.5829 -0.7963  3.4310
  142MOL   H27045672   7.165   5.994   3.153 -0.5835 -0.7808  0.1488
  142MOL   H27145673   7.374   6.103   3.181 -1.6971 -0.3706  2.2905
  142MOL   H27245674   7.510   6.243   3.018  0.0159  1.3960  0.5664
  142MOL   H27345675   7.601   6.236   3.160  0.9165 -3.4487  0.5205
  142MOL   C27445676   7.711   6.293   2.981  0.3326  0.3765 -0.6048
  142MOL   C27545677   7.716   6.276   2.830 -0.5765  0.2926  0.4213
  142MOL   C27645678   7.630   6.363   2.761  0.0805 -0.0867 -0.0921
  142MOL   C27745679   7.615   6.344   2.624  0.4743 -0.0956 -0.0265
  142MOL  Cl27845680   7.496   6.428   2.539  0.0791  0.4376  0.1756
  142MOL   C27945681   7.681   6.239   2.562  0.0256  0.0553  0.1405
  142MOL   C28045682   7.775   6.158   2.620  0.4517 -0.1038 -0.4137
  142MOL   C28145683   7.791   6.173   2.760 -0.5752 -0.5615  1.1491
  142MOL   C28245684   7.716   6.435   3.039 -0.9264  0.0794  0.3433
  142MOL   H28345685   7.806   6.254   3.018  1.4248  1.5697 -2.0891
  142MOL   H28445686   7.568   6.436   2.810  1.1189 -0.2411  1.5151
  142MOL   H28545687   7.662   6.236   2.456 -2.4423 -1.2055  0.6019
  142MOL   H28645688   7.837   6.089   2.565  0.5703 -0.5547  0.2860
  142MOL   H28745689   7.867   6.113   2.808 -0.4820 -3.6523 -2.6702
  142MOL   H28845690   7.617   6.478   3.021 -0.8654  0.1724  0.2291
  142MOL   H28945691   7.711   6.431   3.148 -4.4019 -0.8285  0.1929
  142MOL   C29045692   7.833   6.531   2.987  0.2466 -0.1024 -0.2528
  142MOL   C29145693   7.779   6.648   2.907 -0.0270  0.0736  0.7200
  142MOL   C29245694   7.719   6.755   2.971  0.9571  0.7315 -0.1174
  142MOL   C29345695   7.662   6.857   2.891 -0.1715 -0.7739  0.3866
  142MOL  Cl29445696   7.584   6.991   2.965 -0.0213  0.1906 -0.1495
  142MOL   C29545697   7.662   6.846   2.754  0.0340  0.4502  0.3378
  142MOL   C29645698   7.731   6.747   2.689 -0.0938 -0.5486  0.0804
  142MOL   C29745699   7.789   6.647   2.767 -0.1872 -0.3721  0.2438
  142MOL   C29845700   7.915   6.589   3.107  0.1467 -0.0026  0.1406
  142MOL   H29945701   7.893   6.472   2.918 -0.2214 -0.5921 -0.2496
  142MOL   H30045702   7.715   6.751   3.079 -2.0565 -0.2555 -0.2268
  142MOL   H30145703   7.615   6.926   2.697  0.5854  0.4053 -0.1912
  142MOL   H30245704   7.742   6.746   2.581 -1.0087 -1.6386 -0.0162
  142MOL   H30345705   7.836   6.566   2.714  0.4781  0.0233  0.2324
  142MOL   H30445706   7.967   6.673   3.061 -1.4209  1.4143  0.8847
  142MOL   H30545707   7.856   6.642   3.182 -1.9902 -0.3507 -1.2393
  142MOL   C30645708   8.005   6.493   3.181  0.2840  0.4989  0.4431
  142MOL   C30745709   8.117   6.441   3.094  0.5019 -0.6063  0.4593
  142MOL   C30845710   8.119   6.310   3.042 -0.2181 -0.0897 -0.0236
  142MOL   C30945711   8.213   6.275   2.945 -0.7056 -0.0037  0.2382
  142MOL  Cl31045712   8.193   6.134   2.859 -0.6190 -0.0548  0.0664
  142MOL   C31145713   8.318   6.359   2.913 -0.5955 -0.6538  0.0563
  142MOL   C31245714   8.339   6.475   2.984 -0.7341  0.0629 -0.1099
  142MOL   C31345715   8.233   6.527   3.062  0.0699 -0.1935  1.1687
  142MOL   C31445716   8.061   6.554   3.312 -0.0097 -0.5007  0.6162
  142MOL   H31545717   7.940   6.412   3.212 -1.2694  0.9145 -1.6366
  142MOL   H31645718   8.037   6.242   3.064 -0.7551  0.8944  1.0492
  142MOL   H31745719   8.400   6.324   2.853  1.8135  2.4763  1.3933
  142MOL   H31845720   8.427   6.538   2.978 -1.3959  1.0572  0.4322
  142MOL   H31945721   8.229   6.625   3.106 -2.4233 -0.3499  1.3379
  142MOL   H32045722   7.985   6.553   3.391 -0.5256 -0.0092  0.1283
  142MOL   H32145723   8.148   6.495   3.342 -0.3912 -0.5960  1.5611
  142MOL   H32245724   8.094   6.656   3.294  0.7191 -0.8921 -0.3083
  143MOL     C145725   0.097   4.561   7.772  0.1573  0.2391 -0.3134
  143MOL     C245726   8.382   4.549   7.752  0.6789  0.3705  0.0485
  143MOL     C345727   8.285   4.569   7.856 -0.2133  0.3544 -0.3081
  143MOL     C445728   8.150   4.541   7.837 -0.2194  0.1818 -0.7279
  143MOL    Cl545729   8.039   4.558   7.964 -0.3502 -0.0102  0.0289
  143MOL     C645730   8.104   4.506   7.703  0.1284  0.5792  0.3757
  143MOL     C745731   8.200   4.484   7.601  0.4466 -0.4453 -0.3181
  143MOL     C845732   8.335   4.505   7.620 -0.1445  0.6747 -0.4182
  143MOL     C945733   0.145   4.529   7.917 -0.0886  0.2996 -0.8519
  143MOL    H1045734   0.130   4.658   7.736 -0.7228  0.2368 -1.1337
  143MOL    H1145735   8.320   4.609   7.949 -0.3258 -1.3956  0.5050
  143MOL    H1245736   8.000   4.489   7.679  0.4426 -0.6932 -0.1072
  143MOL    H1345737   8.159   4.458   7.505 -1.1708 -1.8560  0.7230
  143MOL    H1445738   8.402   4.485   7.538 -1.3967 -2.0930 -0.7996
  143MOL    H1545739   0.124   4.622   7.971  1.8260  0.0296  0.4178
  143MOL    H1645740   0.086   4.443   7.947 -1.0247  1.2870  0.2324
  143MOL    H1745741   0.141   4.487   7.705  1.5309 -0.4751  1.3437
  143MOL    C1845742   0.290   4.483   7.928 -0.6986 -0.0297 -0.3947
  143MOL    C1945743   0.391   4.583   7.859  0.4167 -0.3737  0.2770
  143MOL    C2045744   0.490   4.547   7.763  0.7068  0.9288  0.3324
  143MOL    C2145745   0.564   4.648   7.693  0.2669 -0.3147  0.5885
  143MOL   Cl2245746   0.672   4.608   7.568  0.0894  0.0430 -0.0190
  143MOL    C2345747   0.553   4.781   7.728  0.3515  0.1335 -0.4677
  143MOL    C2445748   0.464   4.815   7.830  0.4140 -0.1158  0.3284
  143MOL    C2545749   0.374   4.718   7.884 -0.0941  0.1645  0.1336
  143MOL    C2645750   0.333   4.419   8.065 -0.2267 -0.5636 -0.0230
  143MOL    H2745751   0.297   4.399   7.858 -2.8044  0.7627 -1.5912
  143MOL    H2845752   0.491   4.446   7.725  0.2936  0.1868  2.1896
  143MOL    H2945753   0.617   4.849   7.673  1.5474  0.5468  1.3920
  143MOL    H3045754   0.448   4.919   7.855  1.5729  0.1708 -0.1207
  143MOL    H3145755   0.297   4.746   7.954  0.3991 -0.1722  0.8092
  143MOL    H3245756   0.436   4.385   8.063 -0.1244 -0.3268  0.8840
  143MOL    H3345757   0.322   4.489   8.148  0.5626  0.2569 -0.5977
  143MOL    C3445758   0.251   4.288   8.104 -0.1467  0.3321  0.4297
  143MOL    C3545759   0.261   4.182   7.990 -0.2115  0.2662  0.0557
  143MOL    C3645760   0.149   4.178   7.897 -0.0684 -0.1934 -0.5974
  143MOL    C3745761   0.148   4.082   7.796  0.4218  0.5711  0.3887
  143MOL   Cl3845762   0.018   4.087   7.689 -0.2958 -0.1639  0.1766
  143MOL    C3945763   0.251   3.980   7.791  0.0890  0.3307  0.3606
  143MOL    C4045764   0.350   3.989   7.887 -0.3899 -1.0911  0.4703
  143MOL    C4145765   0.363   4.085   7.984  0.0478  0.0761 -0.3044
  143MOL    C4245766   0.268   4.228   8.243 -0.4463 -0.1822 -0.6083
  143MOL    H4345767   0.144   4.310   8.101 -0.2561 -0.2788 -0.1226
  143MOL    H4445768   0.068   4.249   7.906 -0.6058 -0.9475  0.7085
  143MOL    H4545769   0.249   3.897   7.721 -0.4816  0.2520  0.4706
  143MOL    H4645770   0.437   3.924   7.883  0.9752  0.7727 -0.7583
  143MOL    H4745771   0.452   4.082   8.045  0.2930  1.6648 -0.5782
  143MOL    H4845772   0.203   4.140   8.240 -0.3785 -0.3163  1.2694
  143MOL    H4945773   0.371   4.199   8.264 -0.4121  1.3242  1.4959
  143MOL    C5045774   0.228   4.327   8.360  0.1335  0.2253  0.1369
  143MOL    C5145775   0.078   4.371   8.342  0.2516 -0.2654 -1.2211
  143MOL    C5245776   0.048   4.496   8.284  0.2789  0.9888  0.0161
  143MOL    C5345777   8.354   4.533   8.254 -0.4219 -0.5272  0.6204
  143MOL   Cl5445778   8.316   4.688   8.199  0.0526 -0.2486  0.1700
  143MOL    C5545779   8.245   4.439   8.270 -0.4432  0.4928 -0.2267
  143MOL    C5645780   8.275   4.310   8.324  0.2773  0.3767  0.2008
  143MOL    C5745781   8.408   4.279   8.359  0.1353 -0.2049 -0.1772
  143MOL    C5845782   0.250   4.254   0.061 -0.6461 -0.0822  0.2497
  143MOL    H5945783   0.302   4.407   8.351  2.6851 -1.7554  2.5001
  143MOL    H6045784   0.120   4.568   8.250  1.8866 -1.8013 -2.7439
  143MOL    H6145785   8.140   4.460   8.259 -0.6232 -0.9442 -1.3585
  143MOL    H6245786   8.195   4.244   8.355  2.2164 -1.8889  0.5310
  143MOL    H6345787   8.428   4.186   8.410  0.7068 -0.4856 -0.9114
  143MOL    H6445788   0.231   4.147   0.058 -0.8869 -0.0216 -0.7333
  143MOL    H6545789   0.358   4.251   0.077 -0.3466  0.3694 -1.5077
  143MOL    C6645790   0.187   4.321   0.182 -0.3377  0.7819  0.3029
  143MOL    C6745791   0.186   4.225   0.306 -0.8137  0.0232  0.2433
  143MOL    C6845792   0.298   4.141   0.335  0.4890 -0.5066 -0.2069
  143MOL    C6945793   0.296   4.066   0.457 -0.2460  0.4003 -0.0279
  143MOL   Cl7045794   0.430   3.965   0.497  0.4153  0.1193  0.4040
  143MOL    C7145795   0.195   4.078   0.555 -0.1632 -0.2852  0.0252
  143MOL    C7245796   0.083   4.149   0.519 -0.2729  0.0437  0.3357
  143MOL    C7345797   0.076   4.220   0.392 -0.3900 -0.1632 -0.4113
  143MOL    C7445798   0.242   4.453   0.219 -0.4422  0.1900  0.0460
  143MOL    H7545799   0.083   4.337   0.157  0.0303  0.0262 -1.8729
  143MOL    H7645800   0.387   4.133   0.274 -0.4222  2.5335 -2.0546
  143MOL    H7745801   0.197   4.009   0.638  0.0125 -2.7642 -1.9858
  143MOL    H7845802   8.429   4.157   0.581  1.1470  1.2871  2.2775
  143MOL    H7945803   8.424   4.280   0.372 -0.2357  0.4931  0.8297
  143MOL    H8045804   0.327   4.432   0.285 -0.6555  0.1561  0.3105
  143MOL    H8145805   0.300   4.501   0.140 -0.2872  2.9342  1.7506
  143MOL    C8245806   0.150   4.554   0.286  0.0048 -0.6481 -0.3233
  143MOL    C8345807   0.208   4.618   0.410 -0.1063  0.5020 -1.0669
  143MOL    C8445808   0.292   4.727   0.404 -0.2855  0.2350  0.6801
  143MOL    C8545809   0.329   4.796   0.520 -0.7577 -0.0387  0.0117
  143MOL   Cl8645810   0.419   4.942   0.508  0.0231 -0.1959  0.6257
  143MOL    C8745811   0.286   4.747   0.648  0.7979  0.4484  0.6228
  143MOL    C8845812   0.204   4.633   0.652 -0.5176  0.4328  0.0820
  143MOL    C8945813   0.166   4.566   0.534 -0.7204 -0.5432 -0.3845
  143MOL    C9045814   0.093   4.661   0.194  0.0529  0.0386 -0.1165
  143MOL    H9145815   0.068   4.491   0.321 -1.5314  1.0921 -0.7343
  143MOL    H9245816   0.338   4.754   0.310  0.4839  2.3687  1.6365
  143MOL    H9345817   0.315   4.799   0.739 -0.4042  0.7037  0.8741
  143MOL    H9445818   0.185   4.601   0.753  1.6462  0.6609  0.5890
  143MOL    H9545819   0.115   4.471   0.536 -0.4751 -0.6631  0.3592
  143MOL    H9645820   0.169   4.732   0.164 -1.4364  1.4551 -0.6061
  143MOL    H9745821   0.077   4.597   0.107  0.2960  0.9537 -0.8324
  143MOL    C9845822   8.397   4.733   0.233  0.4729  0.5676 -0.3758
  143MOL    C9945823   8.422   4.872   0.250 -0.2783 -0.5363  0.2822
  143MOL   C10045824   0.022   4.931   0.376  0.2354 -0.0476 -0.1804
  143MOL   C10145825   0.048   5.076   0.386  0.2667 -0.0325 -0.3475
  143MOL  Cl10245826   0.076   5.154   0.538 -0.4654 -0.1109 -0.0061
  143MOL   C10345827   0.026   5.162   0.276 -0.2572 -0.0446  0.1511
  143MOL   C10445828   8.429   5.102   0.154  0.2313  0.3838  0.3704
  143MOL   C10545829   8.409   4.961   0.144  0.1247  0.2902  0.0366
  143MOL   C10645830   8.287   4.682   0.134 -0.3587  0.3459 -0.3836
  143MOL   H10745831   8.366   4.684   0.326 -1.1597  1.6566 -0.3370
  143MOL   H10845832   0.022   4.870   0.465  0.3416  1.4773  0.8969
  143MOL   H10945833   0.034   5.269   0.289  1.2370  0.0978 -1.7714
  143MOL   H11045834   8.417   5.158   0.062  1.8242 -1.0819 -0.7411
  143MOL   H11145835   8.389   4.929   0.043 -0.1280 -0.4704  0.3265
  143MOL   H11245836   8.311   4.721   0.035  1.0041 -2.4810 -1.2465
  143MOL   H11345837   8.274   4.574   0.140 -0.6003  0.4746  1.9518
  143MOL   C11445838   8.152   4.751   0.159 -0.3438 -0.5595 -0.0322
  143MOL   C11545839   8.063   4.721   0.040  0.2049 -0.0883  0.3058
  143MOL   C11645840   7.995   4.595   0.027 -0.8550 -1.2292 -0.1762
  143MOL   C11745841   7.913   4.570   8.351  0.3458  0.5334  0.3934
  143MOL  Cl11845842   7.820   4.424   8.334 -0.0270  0.0431  0.0936
  143MOL   C11945843   7.894   4.669   8.251 -1.4070  0.6483  0.0214
  143MOL   C12045844   7.957   4.798   8.267  0.1407  0.0466  0.3364
  143MOL   C12145845   8.034   4.824   8.386  0.1223 -0.4079 -0.4959
  143MOL   C12245846   8.079   4.724   0.295 -0.7503  0.3326 -0.5524
  143MOL   H12345847   8.163   4.859   0.149 -1.5753 -0.3292  0.9556
  143MOL   H12445848   8.008   4.525   0.108  0.2351 -0.1654  0.5896
  143MOL   H12545849   7.854   4.651   8.153  0.5485 -1.8691 -0.3709
  143MOL   H12645850   7.938   4.873   8.192 -0.5528 -0.9602 -0.5157
  143MOL   H12745851   8.059   4.928   8.402  0.0413 -0.4979  0.1990
  143MOL   H12845852   8.068   4.616   0.303 -1.5031  0.3330 -1.5137
  143MOL   H12945853   8.157   4.741   0.369  0.4037 -0.9933 -1.4398
  143MOL   C13045854   7.952   4.804   0.318  0.5007 -0.2425  0.4327
  143MOL   C13145855   7.857   4.740   0.422 -0.1744 -0.8877 -0.4118
  143MOL   C13245856   7.802   4.820   0.523  0.3574  0.4924 -0.4696
  143MOL   C13345857   7.716   4.764   0.615  0.2781  0.2109 -0.2731
  143MOL  Cl13445858   7.643   4.842   0.748  0.0944  0.0837  0.0257
  143MOL   C13545859   7.686   4.629   0.601  0.4482  0.5844  0.3464
  143MOL   C13645860   7.732   4.540   0.499  0.0605 -0.5689 -0.2032
  143MOL   C13745861   7.827   4.598   0.412  0.1651 -0.2249 -0.4346
  143MOL   C13845862   7.979   4.955   0.335 -0.3717 -0.1371  0.1925
  143MOL   H13945863   7.894   4.795   0.226  2.4110 -1.6608 -0.6660
  143MOL   H14045864   7.825   4.924   0.539 -0.0130  0.1868  2.3020
  143MOL   H14145865   7.624   4.581   0.676 -0.2311 -0.4403 -0.8595
  143MOL   H14245866   7.709   4.435   0.483  1.3893 -0.6342 -1.7488
  143MOL   H14345867   7.875   4.541   0.334 -2.5119 -0.9645 -1.6121
  143MOL   H14445868   8.030   4.971   0.430 -0.0349 -1.4943  0.2411
  143MOL   H14545869   8.062   4.993   0.275 -0.3687  0.2780  0.4594
  143MOL   C14645870   7.864   5.052   0.305  0.8486  1.0063  1.0972
  143MOL   C14745871   7.894   5.198   0.347  0.8615 -0.5741  0.3347
  143MOL   C14845872   7.849   5.249   0.466 -0.0454  0.6416 -0.5861
  143MOL   C14945873   7.886   5.384   0.506  0.5112 -0.1456 -0.1154
  143MOL  Cl15045874   7.844   5.438   0.668 -0.4223 -0.5894  0.0520
  143MOL   C15145875   7.981   5.456   0.432  0.8394  0.1530  0.0252
  143MOL   C15245876   8.029   5.393   0.313  0.5256  0.1553 -0.5589
  143MOL   C15345877   7.990   5.265   0.272 -0.1756  0.4384  0.7177
  143MOL   C15445878   7.810   5.051   0.156 -0.5744  0.3059  0.1467
  143MOL   H15545879   7.778   5.012   0.360 -0.5107 -0.2123 -1.7811
  143MOL   H15645880   7.783   5.188   0.526  2.2088 -1.4592 -0.1501
  143MOL   H15745881   8.008   5.555   0.466 -1.0759  1.4523 -2.0623
  143MOL   H15845882   8.108   5.450   0.266  0.2679 -0.2100 -1.4414
  143MOL   H15945883   8.036   5.235   0.179 -0.5150  2.1513 -0.0242
  143MOL   H16045884   7.892   5.085   0.092  0.4099  0.8829  1.6742
  143MOL   H16145885   7.789   4.949   0.124  4.2663 -0.6978 -0.2468
  143MOL   C16245886   7.698   5.151   0.127  0.5626  0.2489 -0.3114
  143MOL   C16345887   7.684   5.167   8.413  0.0007  0.5486  0.4471
  143MOL   C16445888   7.665   5.297   8.373 -0.0152  1.0870  0.4804
  143MOL   C16545889   7.676   5.328   8.241 -0.4282 -0.7591  0.2165
  143MOL  Cl16645890   7.648   5.485   8.189 -0.0563 -0.2067  0.3716
  143MOL   C16745891   7.701   5.228   8.141  0.6624  0.0898  0.3689
  143MOL   C16845892   7.708   5.095   8.178 -0.0152 -0.4715 -0.4981
  143MOL   C16945893   7.703   5.067   8.315  0.6938 -0.1377 -0.0710
  143MOL   C17045894   7.564   5.097   0.180 -0.3790  0.1005 -0.3055
  143MOL   H17145895   7.711   5.251   0.166  0.3136 -0.5579  1.9100
  143MOL   H17245896   7.653   5.381   0.005 -1.1782  0.0289  1.5928
  143MOL   H17345897   7.710   5.257   8.037  0.8964  0.0967  0.3923
  143MOL   H17445898   7.723   5.018   8.104 -0.9249 -2.9602  1.8064
  143MOL   H17545899   7.730   4.968   8.349  2.0911  0.4708  0.6464
  143MOL   H17645900   7.527   5.031   0.101  0.7277  0.4687 -1.1456
  143MOL   H17745901   7.579   5.048   0.276 -1.6297  1.5772  0.6814
  143MOL   C17845902   7.452   5.197   0.209  0.3045 -0.7457 -0.3257
  143MOL   C17945903   7.326   5.126   0.251  1.2138  0.2762  0.5514
  143MOL   C18045904   7.330   5.042   0.366  0.5099 -0.3760 -0.0112
  143MOL   C18145905   7.220   4.958   0.393 -0.0053  0.0732  0.2169
  143MOL  Cl18245906   7.243   4.839   0.516  0.1553  0.1017 -0.2590
  143MOL   C18345907   7.106   4.962   0.310  0.0696 -0.4406 -1.1433
  143MOL   C18445908   7.100   5.043   0.202 -0.0957 -0.4974 -0.4205
  143MOL   C18545909   7.207   5.131   0.173 -0.7502  0.1864 -0.1635
  143MOL   C18645910   7.497   5.292   0.319  0.4235 -0.5510  0.1757
  143MOL   H18745911   7.426   5.256   0.121 -0.1148 -0.8728 -0.2865
  143MOL   H18845912   7.423   5.024   0.417 -0.3651  0.2084  1.8208
  143MOL   H18945913   7.023   4.900   0.342  0.7850  0.1262  2.0277
  143MOL   H19045914   7.006   5.054   0.150 -1.6123  0.8205  2.4724
  143MOL   H19145915   7.223   5.194   0.086 -1.0545  0.7289  0.1693
  143MOL   H19245916   7.423   5.290   0.399  0.6071  0.9276  0.3977
  143MOL   H19345917   7.590   5.256   0.364  0.7911  1.5154  1.1140
  143MOL   C19445918   7.514   5.446   0.280  0.0262  0.4292 -0.1123
  143MOL   C19545919   7.394   5.505   0.209 -0.6600  0.5405  0.3519
  143MOL   C19645920   7.417   5.578   0.089  0.3791 -0.5707  0.3259
  143MOL   C19745921   7.310   5.630   0.016  0.9256  0.1377  0.0151
  143MOL  Cl19845922   7.345   5.713   8.308  0.5310 -0.3540  0.2590
  143MOL   C19945923   7.177   5.620   0.062  0.0450  0.1125 -0.2090
  143MOL   C20045924   7.156   5.558   0.184  0.1711 -0.0984  0.6382
  143MOL   C20145925   7.263   5.503   0.262 -0.8199 -0.6694 -0.3551
  143MOL   C20245926   7.546   5.526   0.406  0.3394 -0.4555  1.2207
  143MOL   H20345927   7.603   5.471   0.222  0.0981  0.0455 -0.1687
  143MOL   H20445928   7.518   5.589   0.054 -0.3900  3.1711 -0.8966
  143MOL   H20545929   7.090   5.647   0.005 -1.1936  0.7478  1.9375
  143MOL   H20645930   7.053   5.545   0.215  0.1505  1.9747  1.5029
  143MOL   H20745931   7.239   5.450   0.353 -1.3021 -0.1152 -0.1552
  143MOL   H20845932   7.458   5.521   0.470  0.6098 -0.7332  1.5720
  143MOL   H20945933   7.620   5.474   0.467  0.3049 -1.6535  0.2496
  143MOL   C21045934   7.573   5.678   0.391  0.0675  0.6664 -0.4684
  143MOL   C21145935   7.531   5.740   0.526  0.7717  1.0407 -0.1684
  143MOL   C21245936   7.428   5.833   0.522 -0.7912  0.1355  0.0859
  143MOL   C21345937   7.371   5.879   0.638  0.3697 -0.5911  0.3371
  143MOL  Cl21445938   7.227   5.977   0.623 -0.2249 -0.0869 -0.1153
  143MOL   C21545939   7.427   5.849   0.763  0.2538  0.3209  0.2112
  143MOL   C21645940   7.536   5.764   0.773 -0.2481 -0.3275  0.8989
  143MOL   C21745941   7.588   5.703   0.650  0.5094 -0.5023  0.9272
  143MOL   C21845942   7.715   5.722   0.355 -0.1306 -0.8141 -0.0020
  143MOL   H21945943   7.508   5.716   0.313 -0.7725  0.3815  0.0905
  143MOL   H22045944   7.387   5.860   0.425  0.0883  1.6092  0.0999
  143MOL   H22145945   7.380   5.876   0.856  1.4459  1.0761  0.5933
  143MOL   H22245946   7.563   5.725   0.869 -0.6721  1.1070  1.6112
  143MOL   H22345947   7.673   5.636   0.647  2.1091  1.5302 -2.1378
  143MOL   H22445948   7.781   5.670   0.424  0.2406  0.0987  0.3397
  143MOL   H22545949   7.742   5.684   0.256 -0.5217 -0.0641 -0.3986
  143MOL   C22645950   7.737   5.877   0.361 -0.0245  0.1949  0.1577
  143MOL   C22745951   7.887   5.890   0.367  0.1575  0.0487 -0.2345
  143MOL   C22845952   7.956   5.917   0.491  0.0391  0.1261 -0.7812
  143MOL   C22945953   8.091   5.922   0.499 -0.7492 -0.1529 -0.2843
  143MOL  Cl23045954   8.150   5.954   0.656 -0.1328  0.3219 -0.3531
  143MOL   C23145955   8.174   5.899   0.391 -0.0153  0.0666  0.1396
  143MOL   C23245956   8.104   5.855   0.276  0.3213 -0.3178 -0.2985
  143MOL   C23345957   7.963   5.854   0.255 -0.1768  0.0311 -0.2640
  143MOL   C23445958   7.659   5.954   0.255  0.7035 -0.4970 -0.5510
  143MOL   H23545959   7.694   5.900   0.459  1.2817  1.1957  0.5192
  143MOL   H23645960   7.894   5.938   0.577  2.1682  0.4202  0.7206
  143MOL   H23745961   8.282   5.899   0.401  0.0867 -0.0011 -0.9243
  143MOL   H23845962   8.157   5.846   0.182  1.1270 -2.8343  0.3446
  143MOL   H23945963   7.918   5.843   0.158 -1.6159  2.0215  0.1444
  143MOL   H24045964   7.715   5.960   0.162  1.3246 -1.6062 -0.2524
  143MOL   H24145965   7.572   5.891   0.235  2.9905 -3.2519 -2.0667
  143MOL   C24245966   7.609   6.099   0.289 -0.2205 -0.0185 -0.6680
  143MOL   C24345967   7.706   6.172   0.381 -1.0459  0.3149  0.7586
  143MOL   C24445968   7.839   6.202   0.340 -0.2377 -0.1308 -0.3518
  143MOL   C24545969   7.919   6.292   0.406 -0.8691 -0.4781  0.0188
  143MOL  Cl24645970   8.079   6.326   0.346 -0.0061 -0.4006 -0.0434
  143MOL   C24745971   7.875   6.354   0.519 -0.2121 -0.1854  0.1993
  143MOL   C24845972   7.748   6.323   0.566  0.3343  0.2167  0.2448
  143MOL   C24945973   7.670   6.230   0.509 -0.1441 -0.1140  0.3976
  143MOL   C25045974   7.575   6.184   0.164 -0.1208 -1.0524  0.1567
  143MOL   H25145975   7.518   6.084   0.348 -0.1909  1.7380 -0.1678
  143MOL   H25245976   7.892   6.162   0.256  0.1083 -2.5577  0.9764
  143MOL   H25345977   7.941   6.424   0.569 -0.4888  0.5033 -0.3996
  143MOL   H25445978   7.707   6.378   0.650  2.0383  1.5455  0.2306
  143MOL   H25545979   7.567   6.216   0.540 -0.8355  1.3971 -1.1591
  143MOL   H25645980   7.559   6.289   0.190 -1.8529 -1.1539 -0.4155
  143MOL   H25745981   7.651   6.177   0.087 -0.8765 -1.5378 -0.5461
  143MOL   C25845982   7.454   6.136   0.092  0.1858 -0.5492 -0.4939
  143MOL   C25945983   7.332   6.116   0.186  0.1252 -0.4623  0.0971
  143MOL   C26045984   7.298   6.209   0.284  0.3288 -0.0772 -0.2046
  143MOL   C26145985   7.176   6.193   0.355 -0.2561 -0.5730 -0.0871
  143MOL  Cl26245986   7.125   6.325   0.468 -0.2031  0.7395  0.3937
  143MOL   C26345987   7.096   6.075   0.334  0.7674  0.3231 -0.0196
  143MOL   C26445988   7.145   5.974   0.255  0.2267 -0.6054 -0.1100
  143MOL   C26545989   7.264   5.994   0.177 -0.0256 -0.4540  0.2085
  143MOL   C26645990   7.422   6.234   8.415  0.6480 -0.5512  0.1693
  143MOL   H26745991   7.483   6.045   0.040  1.6366 -0.1784 -0.3348
  143MOL   H26845992   7.361   6.296   0.287  0.7877 -0.3632 -1.2881
  143MOL   H26945993   7.014   6.065   0.403  1.2873 -1.3928  0.3866
  143MOL   H27045994   7.088   5.883   0.256 -0.7220 -0.0187 -0.3266
  143MOL   H27145995   7.294   5.917   0.108  1.3057 -0.6185  0.9558
  143MOL   H27245996   7.403   6.326   0.035 -0.8939 -1.9460  2.0306
  143MOL   H27345997   7.508   6.264   8.356  0.7984  0.2483  0.7785
  143MOL   C27445998   7.290   6.207   8.334 -0.0528  0.3410 -0.5080
  143MOL   C27545999   7.215   6.342   8.319  0.3237  0.4101  0.0146
  143MOL   C27646000   7.138   6.384   8.429 -0.3015 -0.4927  0.4814
  143MOL   C27746001   7.097   6.522   8.431  1.0767 -0.1711 -0.4519
  143MOL  Cl27846002   7.002   6.584   0.127  0.1222 -0.1310 -0.4201
  143MOL   C27946003   7.121   6.609   8.321 -0.7790 -0.2602  0.3458
  143MOL   C28046004   7.194   6.565   8.214 -0.2823 -0.2865 -0.1776
  143MOL   C28146005   7.244   6.434   8.220  0.2559  0.3573 -0.2093
  143MOL   C28246006   7.313   6.142   8.194 -0.2363  0.0515 -0.1463
  143MOL   H28346007   7.225   6.140   8.390  0.5658 -0.6012 -0.9101
  143MOL   H28446008   7.106   6.320   0.074  2.2525 -0.7225  1.3908
  143MOL   H28546009   7.104   6.714   8.338 -1.3295 -0.1086 -1.0700
  143MOL   H28646010   7.217   6.633   8.133  0.9182 -0.7579 -0.2471
  143MOL   H28746011   7.320   6.416   8.145 -1.0879  1.7941 -1.9720
  143MOL   H28846012   7.380   6.194   8.126  3.9176 -3.6771  0.8570
  143MOL   H28946013   7.371   6.057   8.230 -2.1985 -1.0897  0.4639
  143MOL   C29046014   7.184   6.082   8.124 -0.1953  0.0335 -0.2900
  143MOL   C29146015   7.214   6.032   7.979 -0.7433  0.2931  0.7177
  143MOL   C29246016   7.293   5.913   7.967  0.4414 -0.5687 -0.2961
  143MOL   C29346017   7.321   5.864   7.846  0.1631 -0.7864  0.2669
  143MOL  Cl29446018   7.415   5.720   7.836  0.0432 -0.4155  0.3072
  143MOL   C29546019   7.272   5.926   7.729  0.3495 -0.7998 -0.0671
  143MOL   C29646020   7.180   6.031   7.740  0.7520 -0.0834  0.5795
  143MOL   C29746021   7.155   6.090   7.864  0.0770 -0.0511 -0.0850
  143MOL   C29846022   7.094   5.979   8.199 -0.2704  0.1721 -0.2318
  143MOL   H29946023   7.120   6.169   8.112 -0.9884  0.0780  3.6747
  143MOL   H30046024   7.354   5.873   8.048  1.3893  1.3987 -0.0075
  143MOL   H30146025   7.293   5.869   7.640  1.5067 -2.1844  1.0614
  143MOL   H30246026   7.131   6.074   7.654  1.3317  0.6710  0.6163
  143MOL   H30346027   7.087   6.174   7.872 -0.0370 -0.0584 -0.9422
  143MOL   H30446028   7.136   5.882   8.171 -2.4277 -0.8398 -0.0668
  143MOL   H30546029   7.085   6.007   8.304  1.8569  0.4125 -0.0884
  143MOL   C30646030   6.958   5.954   8.134 -0.1265 -0.1287 -0.0003
  143MOL   C30746031   6.891   5.820   8.163  0.2314  0.5310  0.4159
  143MOL   C30846032   6.828   5.750   8.060  0.2416  0.2471 -0.3518
  143MOL   C30946033   6.778   5.621   8.084 -0.2240  0.9977 -0.5889
  143MOL  Cl31046034   6.700   5.538   7.953  0.2571  0.0578 -0.2477
  143MOL   C31146035   6.789   5.563   8.210  0.4399 -0.4672 -0.2261
  143MOL   C31246036   6.839   5.640   8.321 -0.3970 -0.1583 -0.5318
  143MOL   C31346037   6.886   5.770   8.298 -0.0795 -0.5366  0.0748
  143MOL   C31446038   6.854   6.072   8.134  0.5303 -0.3746  0.5345
  143MOL   H31546039   6.979   5.954   8.027 -1.0826 -1.2958 -0.2009
  143MOL   H31646040   6.834   5.784   7.958 -0.0354  3.8352  0.7443
  143MOL   H31746041   6.740   5.470   8.236 -0.0460  0.3062  1.7121
  143MOL   H31846042   6.835   5.605   8.423 -1.7585  1.2974 -0.0754
  143MOL   H31946043   6.926   5.831   8.378  2.5760 -0.1420 -1.5095
  143MOL   H32046044   6.764   6.042   8.080  0.5302 -3.0763  1.9853
  143MOL   H32146045   6.821   6.093   8.236 -2.2394 -0.1418 -0.3803
  143MOL   H32246046   6.887   6.168   8.094 -2.2440  0.3467 -0.1318
  144MOL     C146047   8.070   6.956   6.139  0.1486  0.3552  0.0586
  144MOL     C246048   7.921   6.981   6.182 -0.3917 -0.3404  0.2089
  144MOL     C346049   7.818   6.886   6.169  1.2154 -0.0350 -0.1220
  144MOL     C446050   7.697   6.909   6.229  0.2674 -0.2323 -0.1960
  144MOL    Cl546051   7.569   6.795   6.226  0.1985  0.1955  0.5526
  144MOL     C646052   7.671   7.028   6.302 -0.6559 -0.7185  0.5171
  144MOL     C746053   7.770   7.130   6.310 -0.0544  0.3911  0.0606
  144MOL     C846054   7.892   7.103   6.251  0.2639 -0.4037 -0.7486
  144MOL     C946055   8.105   7.003   5.999 -0.3438  0.3708 -0.0288
  144MOL    H1046056   8.089   6.851   6.161  2.1023  0.4456 -1.0710
  144MOL    H1146057   7.832   6.791   6.119  0.7598 -1.0735  1.6711
  144MOL    H1246058   7.570   7.031   6.343 -0.4030  0.4240  1.0881
  144MOL    H1346059   7.756   7.217   6.372 -1.2367  1.1520 -1.2342
  144MOL    H1446060   7.974   7.173   6.259 -0.3542  0.4951 -2.0333
  144MOL    H1546061   8.193   6.943   5.976 -0.4282  0.3327 -0.2592
  144MOL    H1646062   8.018   6.984   5.936  0.7222  2.2353 -2.1455
  144MOL    H1746063   8.139   6.996   6.212 -0.2060  1.5750 -0.2651
  144MOL    C1846064   8.166   7.146   5.994  0.1249  0.2182  0.1873
  144MOL    C1946065   8.301   7.161   6.066 -0.6928  0.3074 -0.3456
  144MOL    C2046066   8.304   7.253   6.172 -0.2508 -0.7741 -0.8101
  144MOL    C2146067   8.427   7.287   6.233  0.0434 -0.2010 -0.4649
  144MOL   Cl2246068   8.429   7.405   6.354  0.0141  0.1939  0.3705
  144MOL    C2346069   0.113   7.225   6.189  0.2447  0.2325  0.0494
  144MOL    C2446070   0.112   7.132   6.085 -0.0980  0.0137 -0.4431
  144MOL    C2546071   8.422   7.098   6.027 -0.3288 -0.6573 -0.0672
  144MOL    C2646072   8.181   7.191   5.843 -0.0712  0.3904 -0.4539
  144MOL    H2746073   8.083   7.204   6.033  1.8705  2.2919  0.8639
  144MOL    H2846074   8.216   7.308   6.202  1.3090  1.3107  0.0580
  144MOL    H2946075   0.207   7.259   6.231  0.1263 -0.0969  0.5926
  144MOL    H3046076   0.206   7.104   6.040 -1.1387 -0.4770 -2.3469
  144MOL    H3146077   8.423   7.028   5.945 -1.4930  0.7733 -1.3461
  144MOL    H3246078   8.254   7.272   5.839  0.8695 -0.5448 -2.7635
  144MOL    H3346079   8.225   7.100   5.802 -0.6384 -0.6612  1.2385
  144MOL    C3446080   8.052   7.217   5.758 -0.0464  0.4573  0.4794
  144MOL    C3546081   7.961   7.322   5.819 -0.0342 -0.0379 -0.0757
  144MOL    C3646082   7.823   7.310   5.801  0.0465  0.0888  0.0815
  144MOL    C3746083   7.732   7.419   5.829 -1.2443  0.2298 -0.1559
  144MOL   Cl3846084   7.566   7.409   5.773  0.1070  0.0047 -0.1959
  144MOL    C3946085   7.779   7.533   5.893 -0.2309 -0.0207  0.0847
  144MOL    C4046086   7.921   7.540   5.916 -0.0708  0.2379 -0.3296
  144MOL    C4146087   8.010   7.435   5.882  0.6100 -0.5871  0.8219
  144MOL    C4246088   8.084   7.260   5.612 -0.1731 -0.0097 -0.6548
  144MOL    H4346089   8.000   7.121   5.750 -2.8245  1.9428  0.0013
  144MOL    H4446090   7.785   7.229   5.741 -0.7655 -1.4288  2.5583
  144MOL    H4546091   7.717   7.614   5.926 -2.5723 -1.0128 -1.6877
  144MOL    H4646092   7.966   7.631   5.951  0.7899  1.0410 -3.3811
  144MOL    H4746093   8.116   7.451   5.893  0.3219  0.9619  1.4788
  144MOL    H4846094   7.992   7.275   5.557 -0.2151 -1.6197 -1.0604
  144MOL    H4946095   8.135   7.355   5.626 -1.4414  0.5347  0.2824
  144MOL    C5046096   8.180   7.173   5.525 -0.5706 -0.4582  0.4593
  144MOL    C5146097   8.108   7.036   5.510 -0.4127 -0.4146 -0.4623
  144MOL    C5246098   7.987   7.025   5.438 -0.6651  0.5771 -1.0695
  144MOL    C5346099   7.928   6.896   5.422  0.1256 -0.3712 -0.3172
  144MOL   Cl5446100   7.778   6.877   5.342  0.0348 -0.1333 -0.4887
  144MOL    C5546101   7.994   6.784   5.477  0.1642 -0.1533  0.2132
  144MOL    C5646102   8.124   6.800   5.544  0.1676  0.3501  0.2985
  144MOL    C5746103   8.181   6.924   5.554 -0.8076 -0.1085 -0.2223
  144MOL    C5846104   8.228   7.245   5.393  0.3486  0.6429  0.5628
  144MOL    H5946105   8.266   7.153   5.588 -0.6443 -1.2028  0.3293
  144MOL    H6046106   7.955   7.120   5.398 -2.0218  0.8348  0.5687
  144MOL    H6146107   7.958   6.682   5.473  0.2248 -0.2528  1.7873
  144MOL    H6246108   8.173   6.714   5.589  1.0173  1.2997  1.2195
  144MOL    H6346109   8.275   6.919   5.608 -0.4429 -0.4791 -0.8861
  144MOL    H6446110   8.281   7.169   5.337  0.2483  1.0045 -0.0296
  144MOL    H6546111   8.143   7.267   5.329 -0.3182 -0.1298  1.1620
  144MOL    C6646112   8.301   7.376   5.403  0.7256  0.1164 -0.0776
  144MOL    C6746113   8.423   7.376   5.495  0.3491  0.2316  1.0781
  144MOL    C6846114   8.426   7.438   5.628 -0.1322  0.0335  0.1352
  144MOL    C6946115   0.101   7.428   5.708  0.3111  0.4368  0.0967
  144MOL   Cl7046116   0.098   7.511   5.857 -0.2132  0.0303  0.6149
  144MOL    C7146117   0.213   7.367   5.659 -0.3070 -0.4985 -0.0458
  144MOL    C7246118   0.219   7.300   5.533 -0.6046  0.3403  0.0974
  144MOL    C7346119   0.107   7.310   5.450 -0.6758  0.8705  0.1367
  144MOL    C7446120   8.335   7.443   5.274 -0.2332  0.0546 -0.0336
  144MOL    H7546121   8.238   7.446   5.458  0.8021  0.3482 -0.2836
  144MOL    H7646122   8.335   7.482   5.667 -0.8921 -1.8911  0.5582
  144MOL    H7746123   0.304   7.376   5.716 -0.5726  0.8589  0.1823
  144MOL    H7846124   0.314   7.262   5.500 -0.1988  2.0231 -0.7231
  144MOL    H7946125   0.108   7.266   5.352 -0.0997 -1.3836  1.1348
  144MOL    H8046126   8.380   7.372   5.203 -1.3645 -0.4600 -0.2451
  144MOL    H8146127   8.244   7.470   5.221 -0.2467  1.0339  0.5038
  144MOL    C8246128   0.004   7.565   5.271  0.0818  0.2475 -0.0301
  144MOL    C8346129   0.026   7.623   5.129  0.2495  0.3580 -0.3426
  144MOL    C8446130   8.350   7.669   5.054  0.1482 -0.5539  0.2409
  144MOL    C8546131   8.376   7.724   4.921 -0.2178  0.4607 -0.3123
  144MOL   Cl8646132   8.253   7.773   4.816  0.1837 -0.2135 -0.2215
  144MOL    C8746133   0.077   7.714   4.871  0.1238 -0.1227  0.4108
  144MOL    C8846134   0.181   7.673   4.952 -0.2915 -1.1158 -0.0454
  144MOL    C8946135   0.156   7.620   5.079  0.4299  0.3860 -0.1381
  144MOL    C9046136   8.391   7.676   5.364  0.1462 -0.0389  0.2041
  144MOL    H9146137   0.099   7.520   5.298 -0.4477 -0.8281  0.0984
  144MOL    H9246138   8.254   7.673   5.104 -0.4255 -1.2777 -0.7741
  144MOL    H9346139   0.097   7.735   4.767  0.8741 -1.3477  0.2966
  144MOL    H9446140   0.280   7.664   4.909  0.2679  2.2841  0.4389
  144MOL    H9546141   0.244   7.596   5.136  0.7523 -0.8885 -1.1356
  144MOL    H9646142   8.320   7.742   5.314 -1.7287 -1.4573  0.9339
  144MOL    H9746143   8.344   7.629   5.450 -0.4971  2.2269  1.1118
  144MOL    C9846144   0.065   7.778   5.412 -0.6771  0.2092 -0.0049
  144MOL    C9946145   0.008   7.887   5.499 -0.0522  0.3118  0.3658
  144MOL   C10046146   8.364   7.854   5.615  0.1610 -0.3102 -0.5608
  144MOL   C10146147   8.306   7.954   5.691  0.2430  0.2337 -0.3364
  144MOL  Cl10246148   8.184   7.921   5.809  0.0509  0.3967  0.1606
  144MOL   C10346149   8.334   8.084   5.660  0.4523  0.3483  0.2164
  144MOL   C10446150   8.411   8.122   5.556  0.3974  0.2665  0.1330
  144MOL   C10546151   0.027   8.024   5.474 -0.4642 -0.2335 -0.5171
  144MOL   C10646152   0.177   7.712   5.489 -0.2508 -0.0870  0.8358
  144MOL   H10746153   0.103   7.818   5.318 -0.3235 -0.7929 -0.3010
  144MOL   H10846154   8.340   7.753   5.645  2.0662 -0.1048  1.7357
  144MOL   H10946155   8.283   8.166   5.710 -1.6679 -0.1084 -1.1186
  144MOL   H11046156   0.011   8.223   5.540  2.7856 -0.5274  0.0499
  144MOL   H11146157   0.084   8.059   5.389 -0.1819  0.8760  0.1138
  144MOL   H11246158   0.146   7.685   5.590  0.9140  0.3079  1.3076
  144MOL   H11346159   0.203   7.616   5.445 -0.6615  0.4080 -0.5182
  144MOL   C11446160   0.314   7.789   5.506 -0.4960  0.0952 -0.1593
  144MOL   C11546161   0.398   7.718   5.613  0.0234  0.2862 -0.3229
  144MOL   C11646162   0.411   7.780   5.744 -0.9717 -0.3848  0.2612
  144MOL   C11746163   0.481   7.724   5.848  0.1889  0.6186 -0.0665
  144MOL  Cl11846164   0.493   7.815   5.993  0.2463  0.0839 -0.0904
  144MOL   C11946165   0.547   7.594   5.829  0.2976 -0.2210  0.2366
  144MOL   C12046166   0.532   7.536   5.699  0.1916  0.8183 -0.0933
  144MOL   C12146167   0.459   7.591   5.592  0.0902  0.4825 -0.1769
  144MOL   C12246168   0.389   7.798   5.372 -0.1569  0.5006  0.1042
  144MOL   H12346169   0.293   7.888   5.546  2.1298  0.4623  0.3908
  144MOL   H12446170   0.350   7.868   5.763 -1.9713 -0.8709 -0.6308
  144MOL   H12546171   0.605   7.543   5.904 -0.2473 -0.3893  0.5502
  144MOL   H12646172   0.589   7.450   5.666  1.8774  1.9513 -0.1939
  144MOL   H12746173   0.448   7.547   5.494  0.8867  0.7778 -0.4023
  144MOL   H12846174   0.383   7.698   5.330 -0.9839 -0.0396  1.5054
  144MOL   H12946175   0.334   7.857   5.299 -0.4721  0.4431  0.2969
  144MOL   C13046176   0.532   7.853   5.382 -0.1934 -0.6783  0.2466
  144MOL   C13146177   0.635   7.764   5.312  0.2751  0.7843  0.5317
  144MOL   C13246178   0.754   7.723   5.376  0.1568 -0.7808  0.4382
  144MOL   C13346179   0.858   7.662   5.303 -0.2128  0.1484  0.8687
  144MOL  Cl13446180   0.997   7.586   5.377 -0.2042  0.0358  0.2499
  144MOL   C13546181   0.841   7.639   5.163  0.0288 -0.8844 -0.0146
  144MOL   C13646182   0.715   7.668   5.104  0.3343 -0.3186 -0.7105
  144MOL   C13746183   0.617   7.729   5.181  0.2508 -0.4244  0.3060
  144MOL   C13846184   0.549   8.007   5.334 -0.3410  1.2680 -0.2424
  144MOL   H13946185   0.560   7.851   5.488  1.8782  0.8053 -0.2479
  144MOL   H14046186   0.751   7.721   5.484  2.3869  0.4585  0.5592
  144MOL   H14146187   0.920   7.588   5.110  0.5170 -1.1112  0.9337
  144MOL   H14246188   0.690   7.657   4.999  0.9766 -1.3209 -0.7643
  144MOL   H14346189   0.519   7.746   5.138  0.9308 -2.4461 -2.1358
  144MOL   H14446190   0.651   8.042   5.351 -1.2322  2.6726  2.4033
  144MOL   H14546191   0.522   8.013   5.229  0.6998  1.7382 -0.4921
  144MOL   C14646192   0.456   8.106   5.411 -0.1369 -0.0952 -0.3563
  144MOL   C14746193   0.473   8.107   5.564 -0.8468  0.1934 -0.2654
  144MOL   C14846194   0.596   8.083   5.625 -0.2940  0.1903  1.1073
  144MOL   C14946195   0.604   8.094   5.762 -0.9683 -0.2323 -0.4596
  144MOL  Cl15046196   0.752   8.048   5.838  0.4327  0.4951  0.0697
  144MOL   C15146197   0.498   8.138   5.840 -0.1033  1.0110 -0.9321
  144MOL   C15246198   0.371   8.154   5.784 -0.0751 -0.1457 -1.3205
  144MOL   C15346199   0.358   8.137   5.648 -0.2798 -0.2743  0.3162
  144MOL   C15446200   0.481   8.249   5.352 -0.0218 -0.0957  0.3943
  144MOL   H15546201   0.351   8.080   5.391  0.6106 -2.7919 -1.0471
  144MOL   H15646202   0.683   8.044   5.574  0.3944 -0.7996  2.9730
  144MOL   H15746203   0.516   8.126   5.945  1.5168 -1.3171 -1.4478
  144MOL   H15846204   0.288   8.184   5.846  1.9419 -0.8233  1.8530
  144MOL   H15946205   0.258   8.163   5.616 -1.0101 -1.8993  1.1849
  144MOL   H16046206   0.448   8.315   5.432 -2.1764 -1.9532  1.0751
  144MOL   H16146207   0.584   8.274   5.326 -1.0351 -0.7941 -5.0772
  144MOL   C16246208   0.409   8.297   5.223 -0.6528 -0.0978  0.1366
  144MOL   C16346209   0.284   8.222   5.178 -0.4618  0.5913 -0.8481
  144MOL   C16446210   0.159   8.265   5.224 -0.1179 -0.0660 -0.2211
  144MOL   C16546211   0.043   8.202   5.179 -0.1486 -0.6594  0.3623
  144MOL  Cl16646212   8.326   8.275   5.219 -0.2274 -0.4857  0.1706
  144MOL   C16746213   0.051   8.092   5.092  0.3860  0.2084  0.3107
  144MOL   C16846214   0.178   8.045   5.048 -0.0612 -0.4336  0.0445
  144MOL   C16946215   0.293   8.111   5.090 -0.2243 -0.1989  0.9960
  144MOL   C17046216   0.387   0.015   5.228 -0.2913 -0.2716  0.2675
  144MOL   H17146217   0.485   8.270   5.150  0.3005  0.7453  0.7962
  144MOL   H17246218   0.138   8.355   5.279  0.5990  0.6005 -1.0239
  144MOL   H17346219   8.403   8.046   5.041 -0.6301  0.5823  1.6346
  144MOL   H17446220   0.185   7.970   4.971 -0.6640  0.4197 -0.8559
  144MOL   H17546221   0.389   8.078   5.055  0.3166  0.9995  1.3101
  144MOL   H17646222   0.315   0.027   5.310 -0.6780 -0.5554 -0.0289
  144MOL   H17746223   0.478   0.069   5.254 -1.8344  3.2439 -1.2907
  144MOL   C17846224   0.335   0.090   5.099 -0.5995  0.2476  0.7698
  144MOL   C17946225   0.291   0.234   5.131 -0.9242  0.4535 -0.2204
  144MOL   C18046226   0.156   0.273   5.120 -0.2051  0.0323 -0.3260
  144MOL   C18146227   0.116   0.403   5.144  0.0896 -0.2109 -0.9558
  144MOL  Cl18246228   8.393   0.453   5.111 -0.0749 -0.5716 -0.4575
  144MOL   C18346229   0.212   0.493   5.207  0.5371  0.1238  0.6340
  144MOL   C18446230   0.347   0.452   5.226  0.0230  0.5078 -0.1546
  144MOL   C18546231   0.382   0.319   5.193  0.1404  0.6161 -0.1257
  144MOL   C18646232   0.445   0.090   4.989  0.3201 -0.1268  0.1050
  144MOL   H18746233   0.242   0.044   5.066  0.7129 -0.0264 -2.7675
  144MOL   H18846234   0.083   0.204   5.079  2.4426 -1.7554 -2.2100
  144MOL   H18946235   0.193   0.594   5.243 -0.6182 -0.5109  1.8504
  144MOL   H19046236   0.429   0.510   5.264  0.6896 -0.3188 -0.3168
  144MOL   H19146237   0.483   0.287   5.211  0.0314  0.6119  0.4942
  144MOL   H19246238   0.498   0.185   4.995 -2.6246  1.6047 -0.4271
  144MOL   H19346239   0.515   0.013   5.022 -0.0576 -0.4926  0.0660
  144MOL   C19446240   0.391   0.055   4.851  0.1639 -0.2052 -0.8094
  144MOL   C19546241   0.279   0.151   4.816  1.0025  0.4736 -0.5712
  144MOL   C19646242   0.308   0.290   4.809  0.8966 -0.0690 -0.5987
  144MOL   C19746243   0.209   0.389   4.781  0.0635 -0.5490  0.4540
  144MOL  Cl19846244   0.242   0.555   4.783 -0.1843 -0.1996  0.1532
  144MOL   C19946245   0.073   0.349   4.756 -0.5385 -0.4810  0.3168
  144MOL   C20046246   0.037   0.210   4.773  0.0171 -0.1379  0.3139
  144MOL   C20146247   0.141   0.115   4.812 -0.2913  0.0375  0.6208
  144MOL   C20246248   0.507   0.064   4.752 -0.8064  0.5750  0.5598
  144MOL   H20346249   0.348   8.392   4.871 -0.7526  0.0115 -1.6942
  144MOL   H20446250   0.410   0.325   4.823  0.9406 -0.5087  0.2903
  144MOL   H20546251   8.429   0.418   4.731 -0.1943 -0.4988 -0.8499
  144MOL   H20646252   8.371   0.174   4.756  0.7624 -2.0578 -0.2406
  144MOL   H20746253   0.108   0.012   4.819  1.7369 -0.6330  0.7082
  144MOL   H20846254   0.545   0.163   4.728 -0.7452  0.2873 -0.5500
  144MOL   H20946255   0.583   0.003   4.801  0.2907  1.2095 -0.3382
  144MOL   C21046256   0.494   8.402   4.626  0.2331 -0.2993  0.5773
  144MOL   C21146257   0.407   8.278   4.649  0.3613  0.0752  0.0762
  144MOL   C21246258   0.468   8.156   4.693 -0.1448 -0.6427 -0.3941
  144MOL   C21346259   0.386   8.041   4.717  0.3915 -0.1230 -0.9539
  144MOL  Cl21446260   0.462   7.896   4.780 -0.1569  0.2104 -0.1086
  144MOL   C21546261   0.250   8.044   4.693  0.2202 -0.3720  0.2210
  144MOL   C21646262   0.190   8.169   4.654  0.2484  0.1747 -0.3232
  144MOL   C21746263   0.271   8.281   4.634 -0.0555  0.2889 -0.1042
  144MOL   C21846264   0.445   0.050   4.508  0.7207 -0.0889  0.2367
  144MOL   H21946265   0.592   8.358   4.610  0.2535  0.0930 -0.4526
  144MOL   H22046266   0.572   8.145   4.720 -0.3468  1.7857  1.4934
  144MOL   H22146267   0.186   7.958   4.705  1.6383 -1.3583  0.9362
  144MOL   H22246268   0.084   8.185   4.669 -0.2433 -3.3235  0.3147
  144MOL   H22346269   0.219   8.374   4.615 -1.7934 -0.0197  2.8321
  144MOL   H22446270   0.403   8.422   4.430 -1.7589  1.4000  0.3100
  144MOL   H22546271   0.367   0.114   4.551 -1.0975 -1.2710 -1.2557
  144MOL   C22646272   0.560   0.124   4.435 -0.3731 -0.2953 -0.6441
  144MOL   C22746273   0.659   0.027   4.371  0.5776  0.3506  0.2542
  144MOL   C22846274   0.799   0.035   4.398  0.2027 -0.6081 -0.4755
  144MOL   C22946275   0.896   8.398   4.328  0.2119 -1.0236 -0.9027
  144MOL  Cl23046276   1.062   8.433   4.348 -0.0030  0.5111 -0.3096
  144MOL   C23146277   0.848   8.307   4.230  0.0625  0.5630  0.0007
  144MOL   C23246278   0.712   8.292   4.204 -0.2688 -0.1038 -0.9316
  144MOL   C23346279   0.618   8.365   4.275  0.0507 -0.0883  0.1075
  144MOL   C23446280   0.506   0.227   4.330  0.6634  0.2493 -0.6645
  144MOL   H23546281   0.610   0.172   4.520 -2.0713  0.1901  0.1016
  144MOL   H23646282   0.831   0.105   4.474  1.5887 -0.4953 -1.1508
  144MOL   H23746283   0.911   8.239   4.175 -1.8095 -1.1083 -0.1588
  144MOL   H23846284   0.692   8.210   4.136  1.7326 -0.0713 -1.5896
  144MOL   H23946285   0.515   8.367   4.240  0.4463 -0.0753 -1.0855
  144MOL   H24046286   0.398   0.208   4.332  0.6928  0.1659  0.9381
  144MOL   H24146287   0.509   0.329   4.370 -0.2652 -0.2059  0.6040
  144MOL   C24246288   0.554   0.229   4.182 -0.2707  0.1190  0.4347
  144MOL   C24346289   0.467   0.320   4.100 -0.6589  1.3945 -1.2232
  144MOL   C24446290   0.415   0.270   3.980  0.4616 -0.0242  0.5008
  144MOL   C24546291   0.329   0.345   3.896  0.7271 -0.3177  0.1997
  144MOL  Cl24646292   0.268   0.298   3.742  0.4473 -0.1446  0.2593
  144MOL   C24746293   0.287   0.475   3.943 -0.1822  0.6466 -0.5123
  144MOL   C24846294   0.336   0.517   4.068  0.1707 -0.5327 -0.1162
  144MOL   C24946295   0.425   0.444   4.144 -0.6361  0.6504 -0.2887
  144MOL   C25046296   0.695   0.284   4.161 -0.3445 -0.1709 -0.5869
  144MOL   H25146297   0.535   0.124   4.158 -2.1805  0.7257 -0.8079
  144MOL   H25246298   0.433   0.166   3.956 -1.9537 -0.3436 -0.0938
  144MOL   H25346299   0.232   0.546   3.883 -1.6799  0.2510  0.3652
  144MOL   H25446300   0.305   0.610   4.115  0.2295 -0.8712  0.5965
  144MOL   H25546301   0.454   0.480   4.242  0.4221 -0.5168 -0.1749
  144MOL   H25646302   0.705   0.388   4.190 -3.9061  0.1933 -0.3519
  144MOL   H25746303   0.757   0.222   4.225 -1.1513 -2.4611 -1.9588
  144MOL   C25846304   0.764   0.263   4.023 -0.4226 -0.2230  0.5953
  144MOL   C25946305   0.903   0.319   4.008 -0.3872 -0.4884  0.1469
  144MOL   C26046306   1.014   0.276   4.086  0.0073  0.2563 -0.5685
  144MOL   C26146307   1.143   0.329   4.068 -0.9808  0.0264  0.0426
  144MOL  Cl26246308   1.269   0.259   4.164 -0.0300  0.2076 -0.2286
  144MOL   C26346309   1.168   0.431   3.973 -0.3473  0.2809  0.1971
  144MOL   C26446310   1.063   0.464   3.890  0.1160  0.0402 -0.1348
  144MOL   C26546311   0.933   0.416   3.909  0.1260 -0.0187 -0.1374
  144MOL   C26646312   0.754   0.121   3.973 -0.8388 -0.1355  0.1651
  144MOL   H26746313   0.708   0.324   3.952  1.5144 -0.2597 -1.0090
  144MOL   H26846314   0.990   0.195   4.154 -0.2256 -0.9597 -2.0732
  144MOL   H26946315   1.265   0.475   3.953 -0.2751 -0.2089 -0.5661
  144MOL   H27046316   1.076   0.537   3.812  2.8384 -0.4909 -0.2241
  144MOL   H27146317   0.854   0.447   3.842  0.1907 -0.3900 -0.3911
  144MOL   H27246318   0.810   0.061   4.045 -1.1244  0.0684  0.5575
  144MOL   H27346319   0.649   0.095   3.985 -1.1406  1.4606  1.0745
  144MOL   C27446320   0.816   0.085   3.839  0.0730  0.4497 -0.8376
  144MOL   C27546321   0.870   8.375   3.845 -0.3556  0.3227  0.0392
  144MOL   C27646322   0.781   8.265   3.842  0.6497 -0.5317 -0.0063
  144MOL   C27746323   0.830   8.134   3.852 -0.0445 -0.9693  0.5806
  144MOL  Cl27846324   0.722   7.999   3.856 -0.5436  0.3089 -0.0350
  144MOL   C27946325   0.969   8.120   3.872 -0.2516  0.0136  0.7147
  144MOL   C28046326   1.053   8.230   3.878  0.8616  0.2341  0.1111
  144MOL   C28146327   1.008   8.359   3.860  0.1931  0.0263 -0.8148
  144MOL   C28246328   0.724   0.108   3.723 -0.3069  0.2004  0.0409
  144MOL   H28346329   0.906   0.144   3.826 -0.8496  1.2164 -4.1919
  144MOL   H28446330   0.674   8.275   3.830  0.3918 -3.1302 -0.2123
  144MOL   H28546331   1.010   8.020   3.879  1.3001  0.6863  1.4934
  144MOL   H28646332   1.159   8.214   3.893  0.4943 -0.9973  1.4575
  144MOL   H28746333   1.082   0.002   3.869  0.0693  0.1706 -1.0416
  144MOL   H28846334   0.635   0.046   3.732  0.9292 -1.5381  0.5346
  144MOL   H28946335   0.675   0.205   3.731 -0.9212 -0.0544 -0.5767
  144MOL   C29046336   0.789   0.097   3.581 -0.4574 -0.4872  0.7013
  144MOL   C29146337   0.691   0.054   3.479 -0.0624  0.4862 -0.3356
  144MOL   C29246338   0.708   8.380   3.392  0.0240 -0.7604 -0.0272
  144MOL   C29346339   0.602   8.328   3.321 -0.3697 -0.1442  0.0593
  144MOL  Cl29446340   0.615   8.183   3.239 -0.1304 -0.3322 -0.0866
  144MOL   C29546341   0.476   8.391   3.324  0.1719 -0.4700 -0.4216
  144MOL   C29646342   0.458   0.073   3.395  0.2602 -0.0264 -0.1554
  144MOL   C29746343   0.572   0.132   3.462  0.3468  0.6047 -0.0575
  144MOL   C29846344   0.847   0.240   3.537 -0.2263 -0.2752  0.1724
  144MOL   H29946345   0.868   0.024   3.590  0.0396 -0.2321 -1.2567
  144MOL   H30046346   0.792   8.313   3.396 -0.5167 -1.6929 -3.0005
  144MOL   H30146347   0.398   8.344   3.266 -0.3578  1.1209 -1.0315
  144MOL   H30246348   0.365   0.126   3.399  1.0717  1.3378  1.1177
  144MOL   H30346349   0.556   0.225   3.515 -0.7613  1.0841 -1.2073
  144MOL   H30446350   0.773   0.311   3.501 -0.8565  0.4053  2.6764
  144MOL   H30546351   0.883   0.285   3.630 -0.4335 -1.5583  0.9004
  144MOL   C30646352   0.971   0.225   3.439  0.4943  0.2239 -0.8668
  144MOL   C30746353   0.935   0.263   3.295  0.7094 -0.4009  0.9210
  144MOL   C30846354   0.920   0.160   3.198 -0.2376 -0.3516  1.0932
  144MOL   C30946355   0.885   0.183   3.063 -0.0919  0.7291 -0.3651
  144MOL  Cl31046356   0.877   0.052   2.950 -0.3605  0.1139 -0.0745
  144MOL   C31146357   0.865   0.319   3.021  0.1411  0.6700 -0.2275
  144MOL   C31246358   0.876   0.423   3.113  0.2314  0.1413  0.1288
  144MOL   C31346359   0.905   0.395   3.248 -1.4688 -0.1547 -0.1547
  144MOL   C31446360   1.102   0.293   3.493  0.0476  0.3721 -0.2213
  144MOL   H31546361   1.000   0.120   3.434  1.0042  0.3984 -1.7670
  144MOL   H31646362   0.949   0.063   3.236 -2.8880 -2.0868 -1.1062
  144MOL   H31746363   0.841   0.325   2.916  1.2241 -2.0765 -0.6731
  144MOL   H31846364   0.860   0.525   3.079  0.3326  1.3901  3.5972
  144MOL   H31946365   0.924   0.469   3.324 -0.3469 -0.2236 -0.3599
  144MOL   H32046366   1.123   0.244   3.588  2.9958  0.5511 -0.7392
  144MOL   H32146367   1.187   0.262   3.432 -2.4298 -1.2852 -2.9731
  144MOL   H32246368   1.096   0.401   3.482  0.3269  0.1620 -2.8936
  145MOL     C146369   4.547   7.017   6.649 -0.3019 -0.1062 -0.2103
  145MOL     C246370   4.403   7.026   6.674  0.4158 -0.0198 -0.3233
  145MOL     C346371   4.340   6.921   6.747  0.0188  0.0881 -0.9115
  145MOL     C446372   4.198   6.921   6.753 -0.1067  0.1987 -0.7559
  145MOL    Cl546373   4.119   6.810   6.854 -0.2989  0.5549  0.1684
  145MOL     C646374   4.117   7.012   6.681 -0.3585 -0.0887  0.1932
  145MOL     C746375   4.187   7.122   6.614  0.4524  0.4285  0.1843
  145MOL     C846376   4.329   7.134   6.618  0.5296 -0.4965  0.3823
  145MOL     C946377   4.630   7.137   6.698 -0.0334  0.2234 -0.0074
  145MOL    H1046378   4.558   7.006   6.541 -0.1501 -1.8881 -0.0277
  145MOL    H1146379   4.396   6.848   6.803 -1.1350  0.3102  0.5919
  145MOL    H1246380   4.009   7.014   6.683 -0.4656 -3.2406 -0.5306
  145MOL    H1346381   4.136   7.195   6.553 -0.3579 -0.4131 -0.1654
  145MOL    H1446382   4.375   7.217   6.566 -1.7373  1.1383  0.8793
  145MOL    H1546383   4.731   7.124   6.661  0.1213  2.4133 -0.4418
  145MOL    H1646384   4.581   7.225   6.656 -0.0385  0.3865  0.3399
  145MOL    H1746385   4.586   6.930   6.701 -1.1491  0.9077  2.1910
  145MOL    C1846386   4.642   7.153   6.859  0.7283 -1.1517  0.3269
  145MOL    C1946387   4.667   7.023   6.934  0.2812  0.2151  0.8619
  145MOL    C2046388   4.557   6.954   6.994 -0.1403 -0.5339  0.7448
  145MOL    C2146389   4.583   6.833   7.057  1.3675  0.1659 -1.3712
  145MOL   Cl2246390   4.449   6.747   7.127 -0.1164  0.2479  0.2434
  145MOL    C2346391   4.715   6.781   7.062 -0.8831 -0.1286 -0.2896
  145MOL    C2446392   4.819   6.846   6.996 -0.1402 -0.0435  0.1482
  145MOL    C2546393   4.797   6.968   6.929 -0.1087  0.0967 -0.1151
  145MOL    C2646394   4.740   7.266   6.903 -0.5379  0.5637  0.4029
  145MOL    H2746395   4.544   7.191   6.891  0.8809 -0.0473 -0.5044
  145MOL    H2846396   4.456   6.992   6.997  0.4778  1.1473  1.0858
  145MOL    H2946397   4.747   6.697   7.122 -0.9430 -0.5037 -0.7812
  145MOL    H3046398   4.916   6.799   6.990 -1.2526 -2.5117  0.9411
  145MOL    H3146399   4.877   7.019   6.877  1.3542 -1.5773  0.4144
  145MOL    H3246400   4.832   7.233   6.854  0.2089  2.0722  0.7557
  145MOL    H3346401   4.718   7.360   6.852  1.1186  0.1298 -1.1599
  145MOL    C3446402   4.771   7.279   7.053  0.2507 -1.1239  0.3878
  145MOL    C3546403   4.899   7.360   7.084 -0.1560 -0.7948 -0.2680
  145MOL    C3646404   5.009   7.298   7.144 -0.0563 -0.4169 -0.5749
  145MOL    C3746405   5.124   7.373   7.169  0.3083 -0.0881 -0.1710
  145MOL   Cl3846406   5.251   7.300   7.254  0.0866  0.4349 -0.2275
  145MOL    C3946407   5.132   7.506   7.124 -0.3235  0.0240  0.1220
  145MOL    C4046408   5.024   7.570   7.052 -0.1164  0.3476  0.7698
  145MOL    C4146409   4.908   7.490   7.041 -0.1543 -0.1012 -0.1996
  145MOL    C4246410   4.643   7.343   7.117  0.5476  0.3232 -0.2295
  145MOL    H4346411   4.790   7.181   7.097  1.4765  0.3814  3.3598
  145MOL    H4446412   5.002   7.195   7.173  1.6933 -0.2741  0.3713
  145MOL    H4546413   5.219   7.567   7.146 -0.8678  0.1567  1.9786
  145MOL    H4646414   5.030   7.674   7.024  2.8787  0.1084  0.3981
  145MOL    H4746415   4.828   7.540   6.988 -1.1757 -0.5091  0.9385
  145MOL    H4846416   4.648   7.451   7.108 -1.3448  0.4381 -0.0359
  145MOL    H4946417   4.552   7.297   7.077  1.4095 -1.5515 -0.1028
  145MOL    C5046418   4.650   7.321   7.270  0.2465  0.3191  0.1734
  145MOL    C5146419   4.601   7.439   7.351 -0.6365 -0.9864  0.5786
  145MOL    C5246420   4.694   7.520   7.410 -0.2873 -0.3741 -0.9086
  145MOL    C5346421   4.655   7.647   7.463 -0.4637  0.4776  0.2353
  145MOL   Cl5446422   4.772   7.754   7.530 -0.1302 -0.4803 -0.1554
  145MOL    C5546423   4.523   7.690   7.456  0.7945  0.3799  0.5165
  145MOL    C5646424   4.422   7.598   7.406 -0.4012 -0.2520  0.0354
  145MOL    C5746425   4.465   7.472   7.359 -0.0865 -0.5140  0.1076
  145MOL    C5846426   4.587   7.182   7.302  0.2016 -0.1937 -0.4072
  145MOL    H5946427   4.755   7.312   7.300  0.0319 -1.9085  0.3626
  145MOL    H6046428   4.797   7.486   7.408  0.0434  0.6250 -1.7482
  145MOL    H6146429   4.505   7.795   7.476 -1.8218  0.1579 -0.4618
  145MOL    H6246430   4.317   7.623   7.393 -0.1711 -0.3872 -2.2793
  145MOL    H6346431   4.389   7.409   7.314  1.6127 -1.8047 -1.0021
  145MOL    H6446432   4.478   7.191   7.298  0.0550 -2.2886 -1.3870
  145MOL    H6546433   4.618   7.117   7.220  1.3684 -0.7564  0.4641
  145MOL    C6646434   4.629   7.129   7.444  0.9519  0.3483 -1.1179
  145MOL    C6746435   4.527   7.023   7.492  0.7884 -0.5821  0.7516
  145MOL    C6846436   4.432   7.065   7.583  0.5132  0.3400  0.4491
  145MOL    C6946437   4.327   6.980   7.627 -0.1155  0.2567  0.3803
  145MOL   Cl7046438   4.227   7.011   7.762 -0.1806  0.1940  0.0271
  145MOL    C7146439   4.327   6.843   7.586  0.8425  0.1381  0.8339
  145MOL    C7246440   4.428   6.803   7.503 -0.6575  0.9930 -0.1630
  145MOL    C7346441   4.528   6.891   7.444 -0.4946  0.6272  0.6086
  145MOL    C7446442   4.778   7.073   7.444  0.4783  0.5493 -0.4396
  145MOL    H7546443   4.632   7.204   7.523  1.9026 -0.2298 -0.5952
  145MOL    H7646444   4.438   7.163   7.629  2.4514 -0.2199  1.4281
  145MOL    H7746445   4.260   6.768   7.625  1.4972 -0.6684  0.4298
  145MOL    H7846446   4.442   6.701   7.471  0.9668  1.3360 -0.5708
  145MOL    H7946447   4.594   6.849   7.370  1.4405 -0.7614  3.0882
  145MOL    H8046448   4.792   7.000   7.364  0.6673  2.1278 -1.8776
  145MOL    H8146449   4.851   7.149   7.418 -0.4459  1.9294  0.9191
  145MOL    C8246450   4.824   7.020   7.584  0.4918  0.1419 -0.3924
  145MOL    C8346451   4.937   6.919   7.566 -0.2462 -1.2135  0.8688
  145MOL    C8446452   5.058   6.967   7.507  0.3764  0.8508  0.3679
  145MOL    C8546453   5.166   6.873   7.482  0.9004 -0.2985  1.1693
  145MOL   Cl8646454   5.308   6.920   7.391  0.0938  0.0439  0.3817
  145MOL    C8746455   5.141   6.736   7.510 -0.1510 -0.3709  0.0937
  145MOL    C8846456   5.026   6.696   7.577 -0.0976  0.0162 -0.2960
  145MOL    C8946457   4.923   6.784   7.604 -0.4156  0.2494 -0.0412
  145MOL    C9046458   4.849   7.135   7.682  0.2631 -0.2099 -0.5504
  145MOL    H9146459   4.732   6.980   7.626  1.0196  0.8317  1.4300
  145MOL    H9246460   5.076   7.072   7.492  0.2679  0.7396 -0.5792
  145MOL    H9346461   5.213   6.656   7.497  0.2346  0.1534 -1.0475
  145MOL    H9446462   5.020   6.592   7.608 -0.8832 -0.3363 -1.5901
  145MOL    H9546463   4.829   6.758   7.650  0.0999 -0.5308  0.5876
  145MOL    H9646464   4.936   7.175   7.632  0.5349 -1.6408 -1.2629
  145MOL    H9746465   4.774   7.214   7.674 -0.1154 -0.4700  0.3049
  145MOL    C9846466   4.873   7.100   7.828 -0.2141  0.2103 -0.3220
  145MOL    C9946467   4.955   7.206   7.896 -0.9900  0.0716  0.7891
  145MOL   C10046468   4.902   7.342   7.900  0.2564  0.0269 -0.2865
  145MOL   C10146469   4.974   7.446   7.965 -0.5300  0.4194 -0.5215
  145MOL  Cl10246470   4.918   7.609   7.971  0.3504 -0.3099 -0.2934
  145MOL   C10346471   5.095   7.411   8.029  0.2674 -0.5535 -0.2569
  145MOL   C10446472   5.147   7.281   8.027  0.2110 -0.6113 -0.6163
  145MOL   C10546473   5.075   7.175   7.960 -1.0801  0.0379 -0.2941
  145MOL   C10646474   4.743   7.058   7.894  0.3755 -0.4340 -0.0275
  145MOL   H10746475   4.935   7.011   7.819 -2.4508 -1.3145 -1.1970
  145MOL   H10846476   4.809   7.365   7.850 -0.6618 -1.9666  0.4423
  145MOL   H10946477   5.154   7.485   8.080  2.1988 -0.7622 -2.1347
  145MOL   H11046478   5.234   7.258   8.087 -1.0537 -3.4265  0.1954
  145MOL   H11146479   5.102   7.071   7.958 -0.9533  0.0811 -0.8467
  145MOL   H11246480   4.684   7.147   7.918 -0.5698 -0.3243 -2.6436
  145MOL   H11346481   4.677   7.006   7.825  0.1585 -0.9870  0.5894
  145MOL   C11446482   4.752   6.964   8.024  0.2604  0.7212 -0.0447
  145MOL   C11546483   4.611   6.920   8.063 -0.3783 -0.4591  0.2364
  145MOL   C11646484   4.565   6.941   8.197  0.0375 -0.7500  0.4817
  145MOL   C11746485   4.435   6.917   8.234  0.3332 -0.8385 -0.0227
  145MOL  Cl11846486   4.380   6.964   8.394  0.1042  0.4040  0.2837
  145MOL   C11946487   4.346   6.856   8.140 -0.3113 -0.5155 -0.0775
  145MOL   C12046488   4.389   6.825   8.011 -0.0649 -0.8340  0.1466
  145MOL   C12146489   4.523   6.857   7.972  0.9222  0.1734  0.4893
  145MOL   C12246490   4.842   6.842   7.991 -1.2798  0.5101  0.3691
  145MOL   H12346491   4.789   7.030   8.101 -1.3209  2.5609 -0.8393
  145MOL   H12446492   4.624   6.988   8.274  0.4382  0.5220 -0.5688
  145MOL   H12546493   4.245   6.844   8.176 -0.3266  1.6709  0.6479
  145MOL   H12646494   4.322   6.782   7.938 -0.1706  0.0347 -0.2717
  145MOL   H12746495   4.548   6.850   7.867  2.2048 -0.3830  0.8222
  145MOL   H12846496   4.822   6.806   7.890  1.2725 -0.3497  0.1283
  145MOL   H12946497   4.945   6.874   7.975 -1.8438  1.7523 -0.9024
  145MOL   C13046498   4.836   6.710   8.082  0.0456 -0.1937  0.1090
  145MOL   C13146499   4.925   6.601   8.022  0.1091 -0.2223  0.1632
  145MOL   C13246500   4.866   6.479   7.992  0.4773  0.1188 -0.3908
  145MOL   C13346501   4.947   6.367   7.947  0.0876 -0.6058 -0.0692
  145MOL  Cl13446502   4.887   6.203   7.928  0.4925 -0.1178 -0.5010
  145MOL   C13546503   5.082   6.390   7.919 -0.1605 -0.2487  0.5088
  145MOL   C13646504   5.135   6.519   7.931  0.2162  0.6227 -0.4449
  145MOL   C13746505   5.066   6.618   7.995 -0.6003  0.1179 -0.0100
  145MOL   C13846506   4.870   6.754   8.235  0.6798  0.5193 -0.3212
  145MOL   H13946507   4.738   6.665   8.068  0.3395 -1.2043  1.1920
  145MOL   H14046508   4.760   6.458   8.000  0.7851 -1.8375 -1.3216
  145MOL   H14146509   5.132   6.308   7.871 -0.4234 -0.1064 -0.0168
  145MOL   H14246510   5.237   6.533   7.899  0.3182 -2.2146 -1.4635
  145MOL   H14346511   5.110   6.716   8.005  2.6677 -1.2884 -0.0933
  145MOL   H14446512   4.977   6.776   8.230  0.3416  2.4418  0.2611
  145MOL   H14546513   4.822   6.850   8.255  2.4123  1.0692  1.4382
  145MOL   C14646514   4.852   6.658   8.359  0.1030 -0.2308  0.0571
  145MOL   C14746515   4.907   6.734   0.045  0.0291  0.1115  0.6763
  145MOL   C14846516   4.845   6.852   0.095  0.3828  0.7886  0.1907
  145MOL   C14946517   4.896   6.907   0.216 -0.2533 -0.0389  0.1371
  145MOL  Cl15046518   4.824   7.050   0.269 -0.3892  0.0264  0.2779
  145MOL   C15146519   5.003   6.852   0.284 -0.5531 -0.2248  0.5108
  145MOL   C15246520   5.074   6.739   0.238 -0.3584  0.5731  0.3387
  145MOL   C15346521   5.020   6.682   0.114 -0.3091  0.4282 -0.4153
  145MOL   C15446522   4.712   6.620   8.388 -0.1507 -0.1419  0.0677
  145MOL   H15546523   4.914   6.571   8.337 -0.6184 -0.9789  0.9579
  145MOL   H15646524   4.752   6.886   0.051 -1.2072 -1.1985  1.9162
  145MOL   H15746525   5.027   6.897   0.380 -1.2544 -1.0125  1.0708
  145MOL   H15846526   5.160   6.707   0.294  1.4232  3.6343 -0.5719
  145MOL   H15946527   5.061   6.589   0.078  0.8804  1.8423 -2.7866
  145MOL   H16046528   4.672   6.674   0.039 -1.1433 -0.0243 -0.4615
  145MOL   H16146529   4.648   6.653   8.306  0.5621 -0.2159 -0.5243
  145MOL   C16246530   4.680   6.469   8.409  0.5369 -0.0597  0.0427
  145MOL   C16346531   4.770   6.395   0.068  0.3209 -0.0124  0.4834
  145MOL   C16446532   4.787   6.446   0.196 -0.3038 -0.0819  0.2938
  145MOL   C16546533   4.866   6.372   0.287 -0.6316 -0.6397  0.9992
  145MOL  Cl16646534   4.891   6.437   0.445  0.1685  0.0728 -0.2865
  145MOL   C16746535   4.937   6.252   0.249 -0.3200 -0.1979 -0.1253
  145MOL   C16846536   4.930   6.204   0.112  0.1111  0.0637  0.6372
  145MOL   C16946537   4.840   6.276   0.021 -0.0379  0.1256 -0.4204
  145MOL   C17046538   4.538   6.439   0.020  0.1074 -0.8733  0.7341
  145MOL   H17146539   4.692   6.426   8.309  2.5850  0.8248 -0.1267
  145MOL   H17246540   4.733   6.534   0.226  1.5523  1.2306 -0.0961
  145MOL   H17346541   4.993   6.192   0.320 -1.7711 -0.0432  1.1575
  145MOL   H17446542   4.991   6.120   0.080 -0.0318  0.6156 -1.1731
  145MOL   H17546543   4.831   6.244   8.353  0.0453 -0.2561 -0.3093
  145MOL   H17646544   4.531   6.330   0.023 -0.8337 -0.8032  1.2538
  145MOL   H17746545   4.515   6.480   0.118 -0.1445 -0.6035  0.5615
  145MOL   C17846546   4.426   6.494   8.361  0.6065 -0.3934 -0.4959
  145MOL   C17946547   4.417   6.422   8.230  0.5465  0.1490  0.3155
  145MOL   C18046548   4.421   6.485   8.110  0.0701  0.4321  0.8777
  145MOL   C18146549   4.415   6.420   7.988  0.4209  0.0388 -0.3699
  145MOL  Cl18246550   4.406   6.510   7.834 -0.0562  0.0729 -0.6309
  145MOL   C18346551   4.400   6.277   7.989 -0.7579 -0.4478  0.2774
  145MOL   C18446552   4.376   6.213   8.109  0.3201 -0.8001  0.2626
  145MOL   C18546553   4.382   6.281   8.232 -0.1342 -0.3039 -0.7185
  145MOL   C18646554   4.298   6.482   0.015 -0.3600  0.1553 -1.0610
  145MOL   H18746555   4.436   6.598   8.330 -2.7558  0.3896  0.8220
  145MOL   H18846556   4.434   6.592   8.109  1.6311  0.2664 -1.0579
  145MOL   H18946557   4.401   6.213   7.902 -0.8198  1.1325 -0.8995
  145MOL   H19046558   4.357   6.107   8.115 -3.8724 -0.1515 -0.2124
  145MOL   H19146559   4.370   6.225   8.323 -1.8603  0.7722 -0.2622
  145MOL   H19246560   4.296   6.381   0.054  1.4842  0.0973 -1.0478
  145MOL   H19346561   4.296   6.549   0.101  1.4005  2.1439 -2.4965
  145MOL   C19446562   4.163   6.488   8.374  0.3770 -0.2017 -0.4726
  145MOL   C19546563   4.058   6.393   0.010  0.6262 -0.1014  0.4055
  145MOL   C19646564   3.956   6.436   0.093  0.3524 -0.2821 -0.3284
  145MOL   C19746565   3.876   6.340   0.161 -0.4246  0.7780  0.1401
  145MOL  Cl19846566   3.758   6.404   0.272  0.0231  0.3916  0.1286
  145MOL   C19946567   3.887   6.209   0.137  0.1936 -0.1848  0.1862
  145MOL   C20046568   3.979   6.162   0.045  0.4404  0.2934 -0.0219
  145MOL   C20146569   4.068   6.256   8.420  0.2765 -0.4444  0.4555
  145MOL   C20246570   4.118   6.637   8.380  0.3657 -0.2731 -0.2593
  145MOL   H20346571   4.168   6.456   8.270 -1.3961  0.4611 -0.7904
  145MOL   H20446572   3.942   6.541   0.113 -1.2956 -0.0317 -2.6426
  145MOL   H20546573   3.823   6.137   0.186 -0.2601  0.2947  0.2994
  145MOL   H20646574   3.987   6.056   0.026  2.9698  0.0766  1.9902
  145MOL   H20746575   4.140   6.219   8.350 -0.5684 -2.8726  0.8237
  145MOL   H20846576   4.095   6.664   0.048 -0.7756 -1.1514 -0.2759
  145MOL   H20946577   4.199   6.703   8.348 -0.8521 -0.1618 -3.2562
  145MOL   C21046578   3.989   6.667   8.289 -0.4194 -0.0904 -0.3001
  145MOL   C21146579   3.926   6.799   8.327 -0.5919 -0.4732 -0.0654
  145MOL   C21246580   4.003   6.922   8.337  0.0478  0.3769  0.6995
  145MOL   C21346581   3.952   7.048   8.385  0.2048 -0.2466 -0.3603
  145MOL  Cl21446582   4.050   7.191   8.394  0.0586  0.2044 -0.4520
  145MOL   C21546583   3.815   7.053   8.425  0.0937 -0.3085  0.2969
  145MOL   C21646584   3.738   6.934   8.413  0.3830  0.6119 -0.4001
  145MOL   C21746585   3.794   6.807   8.378  0.0727 -0.4277  0.5695
  145MOL   C21846586   4.029   6.657   8.138  0.0618  0.2027 -0.7993
  145MOL   H21946587   3.911   6.591   8.299 -0.4166 -0.0239  0.2330
  145MOL   H22046588   4.098   6.941   8.288 -0.1908  0.7769  0.3888
  145MOL   H22146589   3.774   7.138   0.043 -0.9065 -0.4808 -0.1899
  145MOL   H22246590   3.635   6.931   0.013  0.8577  2.3898  1.2467
  145MOL   H22346591   3.727   6.722   8.379  0.1606 -0.6137 -2.8092
  145MOL   H22446592   4.082   6.749   8.113  1.5263 -0.6245 -0.7694
  145MOL   H22546593   4.091   6.569   8.120  0.0067  0.0894 -0.4461
  145MOL   C22646594   3.907   6.640   8.044  0.0661 -0.6560  0.1337
  145MOL   C22746595   3.840   6.766   8.006  0.3927  0.0255 -0.3964
  145MOL   C22846596   3.909   6.888   7.975  0.4808 -0.1204  0.2763
  145MOL   C22946597   3.835   7.000   7.926  0.1710  0.0012 -0.1772
  145MOL  Cl23046598   3.916   7.145   7.889  0.1838 -0.4622  0.2667
  145MOL   C23146599   3.705   6.981   7.885  1.1211 -0.3170 -1.0548
  145MOL   C23246600   3.641   6.857   7.910  0.3205 -1.0022  0.5841
  145MOL   C23346601   3.700   6.752   7.968  0.1412 -0.2033  0.1207
  145MOL   C23446602   3.943   6.565   7.912  0.2621 -0.4854 -0.3297
  145MOL   H23546603   3.831   6.579   8.092  0.9523 -1.5921  0.3552
  145MOL   H23646604   4.016   6.900   7.984  1.1641 -3.6414 -1.9864
  145MOL   H23746605   3.650   7.051   7.823  0.1948  0.5299  0.7089
  145MOL   H23846606   3.542   6.843   7.869  0.3323  0.3422  0.0462
  145MOL   H23946607   3.638   6.665   7.978 -0.5911  0.4772  1.8394
  145MOL   H24046608   3.875   6.595   7.831 -0.1569  1.0751  0.5701
  145MOL   H24146609   4.037   6.613   7.886 -1.2762  3.8081  1.4774
  145MOL   C24246610   3.952   6.415   7.935  0.5362  0.0554  0.2064
  145MOL   C24346611   3.819   6.354   7.964  0.1937 -0.7556  0.5254
  145MOL   C24446612   3.707   6.388   7.889  0.0691  0.2936  0.1374
  145MOL   C24546613   3.578   6.355   7.931  0.1628 -0.3206  0.3569
  145MOL  Cl24646614   3.442   6.419   7.843 -0.2284 -0.0534  0.0178
  145MOL   C24746615   3.560   6.276   8.038 -0.1773  0.1506 -0.2070
  145MOL   C24846616   3.669   6.228   8.112 -0.0330  0.3527  0.1117
  145MOL   C24946617   3.799   6.274   8.079 -0.1055  0.1208  0.3532
  145MOL   C25046618   4.025   6.351   7.816  0.6586  0.3797 -0.3808
  145MOL   H25146619   4.018   6.381   8.015 -0.8305  0.4730  1.5275
  145MOL   H25246620   3.715   6.451   7.802  1.3818 -0.7479 -0.5307
  145MOL   H25346621   3.466   6.239   8.076  0.0124 -2.0580 -1.8196
  145MOL   H25446622   3.644   6.172   8.201 -1.0827 -0.9185 -0.9757
  145MOL   H25546623   3.885   6.254   8.142  0.5592 -0.6634 -0.7896
  145MOL   H25646624   3.995   6.402   7.725 -0.6028  0.0626 -0.1488
  145MOL   H25746625   4.124   6.396   7.822 -0.0759  2.1040 -1.1205
  145MOL   C25846626   4.027   6.192   7.793 -0.4135  0.5787 -0.8544
  145MOL   C25946627   4.097   6.163   7.655 -0.1147 -0.1648  0.1004
  145MOL   C26046628   4.038   6.093   7.548  0.5964 -0.6735  0.4166
  145MOL   C26146629   4.114   6.078   7.430 -0.3093  0.2666  0.2593
  145MOL  Cl26246630   4.036   6.003   7.297  0.2035 -0.5546 -0.0762
  145MOL   C26346631   4.249   6.124   7.414  0.5490  0.8593  0.3235
  145MOL   C26446632   4.305   6.192   7.524 -0.8162 -0.2963  0.5285
  145MOL   C26546633   4.230   6.207   7.641  0.5970 -1.1002  0.3061
  145MOL   C26646634   4.079   6.103   7.909  0.1417  0.4782  0.5174
  145MOL   H26746635   3.924   6.166   7.770 -1.2236  1.3116  1.7077
  145MOL   H26846636   3.945   6.039   7.556  0.3474 -0.5587 -1.4963
  145MOL   H26946637   4.316   6.108   7.331 -0.6068  3.4092 -1.1434
  145MOL   H27046638   4.405   6.233   7.520 -1.3137  0.8047 -0.9257
  145MOL   H27146639   4.281   6.258   7.721  0.5758 -1.6277  0.6648
  145MOL   H27246640   4.188   6.107   7.911  0.2270  0.8592 -2.6252
  145MOL   H27346641   4.049   6.144   8.006  1.9671 -1.0599  1.7659
  145MOL   C27446642   4.040   5.951   7.891  0.5014  0.2740  0.0061
  145MOL   C27546643   4.137   5.858   7.959  0.2604  0.0084  0.0153
  145MOL   C27646644   4.205   5.751   7.893  0.2700  0.0340 -0.1539
  145MOL   C27746645   4.288   5.662   7.971  1.1202 -0.3827  0.0705
  145MOL  Cl27846646   4.360   5.529   7.892  0.2507  0.3651 -0.0812
  145MOL   C27946647   4.315   5.681   8.107  1.3810  0.5165 -1.0420
  145MOL   C28046648   4.240   5.781   8.170 -0.3959  0.6326  0.1361
  145MOL   C28146649   4.159   5.865   8.098  0.3994  0.1711  0.5906
  145MOL   C28246650   3.892   5.915   7.936  0.6234  0.2957  1.1215
  145MOL   H28346651   4.054   5.930   7.785 -0.7684 -0.1270 -0.0942
  145MOL   H28446652   4.194   5.739   7.786  1.6824 -0.3846 -0.2524
  145MOL   H28546653   4.367   5.605   8.164  0.2558 -0.4117 -1.2219
  145MOL   H28646654   4.238   5.787   8.278 -0.2131 -2.7177  0.3676
  145MOL   H28746655   4.108   5.935   8.163  0.3727 -0.1686  0.9345
  145MOL   H28846656   3.878   5.941   8.040 -2.9755  2.9374  0.0885
  145MOL   H28946657   3.830   5.987   7.883  0.3413 -0.4723  0.3896
  145MOL   C29046658   3.839   5.772   7.894  0.0683  0.0102  0.7974
  145MOL   C29146659   3.703   5.751   7.961 -1.0874  0.1824 -0.1905
  145MOL   C29246660   3.693   5.721   8.098 -0.4695 -0.0480 -0.4784
  145MOL   C29346661   3.573   5.688   8.164 -0.7462 -0.4931  0.6082
  145MOL  Cl29446662   3.573   5.651   8.330 -0.1380 -0.0014 -0.1921
  145MOL   C29546663   3.458   5.691   8.088  0.9602 -0.0446  0.9227
  145MOL   C29646664   3.458   5.724   7.952 -0.1478 -0.0082  0.8907
  145MOL   C29746665   3.576   5.754   7.885  0.4725 -0.4873  0.3433
  145MOL   C29846666   3.841   5.762   7.738  0.3833  0.0951 -0.7906
  145MOL   H29946667   3.907   5.692   7.924  0.0870 -1.1802 -2.3075
  145MOL   H30046668   3.789   5.729   8.148 -0.8113  0.6354  0.0764
  145MOL   H30146669   3.366   5.661   8.136 -1.4095 -0.7776 -3.8531
  145MOL   H30246670   3.362   5.726   7.904 -0.4205 -0.3528  1.4157
  145MOL   H30346671   3.579   5.777   7.780  1.8261 -4.2306 -0.5027
  145MOL   H30446672   3.767   5.836   7.706 -0.3599 -0.0198  0.6267
  145MOL   H30546673   3.929   5.798   7.686 -1.2819  1.2903 -2.8611
  145MOL   C30646674   3.824   5.617   7.686  0.5692  0.2254 -0.1916
  145MOL   C30746675   3.748   5.621   7.556  0.3755  0.1609 -0.1270
  145MOL   C30846676   3.614   5.583   7.560 -0.0410  0.9395 -0.0086
  145MOL   C30946677   3.537   5.589   7.442 -0.6372  0.1685  0.7965
  145MOL  Cl31046678   3.370   5.547   7.449  0.2423 -0.1190 -0.0311
  145MOL   C31146679   3.585   5.648   7.319 -0.6562 -0.0159 -0.0301
  145MOL   C31246680   3.718   5.690   7.320 -0.1116 -0.3599  0.6672
  145MOL   C31346681   3.798   5.676   7.439  0.2267 -0.6859  0.6142
  145MOL   C31446682   3.962   5.544   7.675  0.0730  0.0012  0.4798
  145MOL   H31546683   3.763   5.564   7.758  0.3593  0.4696 -0.1901
  145MOL   H31646684   3.569   5.544   7.650  1.7296 -4.9153 -1.4705
  145MOL   H31746685   3.518   5.666   7.236 -0.6711 -0.3851 -0.1016
  145MOL   H31846686   3.759   5.738   7.233 -1.9080  1.5235  0.8293
  145MOL   H31946687   3.904   5.692   7.426  0.1995 -2.2131 -1.7575
  145MOL   H32046688   4.024   5.557   7.763 -0.6652  3.2771  0.5891
  145MOL   H32146689   3.933   5.440   7.658  0.9677 -0.2072  0.1969
  145MOL   H32246690   4.022   5.579   7.591 -0.2231 -0.7295 -0.0421
  146MOL     C146691   5.713   8.170   8.028 -0.3598 -0.4569  0.4204
  146MOL     C246692   5.724   8.024   8.070  0.3909 -0.3656  0.0202
  146MOL     C346693   5.703   7.996   8.206 -0.5688 -0.3534  0.1721
  146MOL     C446694   5.730   7.872   8.265  0.0077 -0.6919  0.3021
  146MOL    Cl546695   5.717   7.851   0.001 -0.1765  0.0597  0.1682
  146MOL     C646696   5.775   7.770   8.182 -0.7304 -0.4444  0.3006
  146MOL     C746697   5.801   7.792   8.044 -0.7953 -0.1144  0.1366
  146MOL     C846698   5.758   7.916   7.989  0.3031 -0.0504 -0.4699
  146MOL     C946699   5.837   8.250   8.068 -0.8001  0.4727  0.0026
  146MOL    H1046700   5.625   8.212   8.077  1.4849  2.2267  1.5211
  146MOL    H1146701   5.661   8.069   8.274 -1.4708 -3.3781  2.9959
  146MOL    H1246702   5.790   7.670   8.221  0.0504 -0.8027 -0.8666
  146MOL    H1346703   5.835   7.708   7.984 -0.5852 -0.3820  0.6334
  146MOL    H1446704   5.769   7.927   7.882 -1.9451  0.4026 -0.6807
  146MOL    H1546705   5.872   8.235   8.170 -1.7021 -0.6657  0.1545
  146MOL    H1646706   5.912   8.206   8.002 -1.8856  2.8346 -2.9009
  146MOL    H1746707   5.698   8.155   7.921 -0.1984 -1.3419  0.5154
  146MOL    C1846708   5.818   8.402   8.032 -0.2406 -0.5023 -0.1743
  146MOL    C1946709   5.705   0.036   8.113  0.3210  0.0986 -0.2626
  146MOL    C2046710   5.592   0.083   8.043  0.0047  0.7664  0.4170
  146MOL    C2146711   5.496   0.153   8.116  0.1539 -0.9054 -0.2817
  146MOL   Cl2246712   5.358   0.211   8.023  0.2247 -0.3825 -0.1164
  146MOL    C2346713   5.506   0.179   8.252 -0.3450 -0.0205 -0.5997
  146MOL    C2446714   5.614   0.122   8.322 -0.2783  0.0740 -0.5316
  146MOL    C2546715   5.711   0.056   8.255  0.5525 -0.7210  0.0945
  146MOL    C2646716   5.946   0.046   8.065  0.1347  0.4924 -0.4287
  146MOL    H2746717   5.785   8.404   7.928  2.0205 -0.0142 -0.9076
  146MOL    H2846718   5.583   0.066   7.937 -0.2646  0.0746  0.5504
  146MOL    H2946719   5.434   0.239   8.306  0.8921  2.4787 -1.6531
  146MOL    H3046720   5.608   0.113   8.429  0.7067  3.7742 -0.1010
  146MOL    H3146721   5.780   0.020   8.329  1.3346 -1.6887 -1.0739
  146MOL    H3246722   5.922   0.152   8.065  0.4494  0.5629 -0.3559
  146MOL    H3346723   5.975   0.029   8.168 -0.3294  1.2828 -0.1626
  146MOL    C3446724   6.065   0.017   7.975 -0.0179  1.0383  0.2139
  146MOL    C3546725   6.045   0.063   7.835  0.3520 -0.1796  1.0102
  146MOL    C3646726   6.040   0.197   7.807 -0.3814 -0.3048 -0.6520
  146MOL    C3746727   6.032   0.236   7.674 -0.4423 -0.2665  0.2295
  146MOL   Cl3846728   6.043   0.407   7.631 -0.0079  0.2146  0.2083
  146MOL    C3946729   6.018   0.139   7.568 -0.0564 -0.0310  0.1205
  146MOL    C4046730   6.014   0.005   7.602  0.5838  0.6063  0.3066
  146MOL    C4146731   6.029   8.402   7.736 -0.5543  0.9560  0.5560
  146MOL    C4246732   6.188   0.068   8.047 -0.0451 -0.3129 -0.7271
  146MOL    H4346733   6.078   8.344   7.979  0.1031  1.0476  0.0658
  146MOL    H4446734   6.041   0.276   7.881 -0.8397 -1.9531  1.1643
  146MOL    H4546735   6.016   0.160   7.462 -1.8728  0.2504  0.1956
  146MOL    H4646736   6.003   8.365   7.525 -0.8961  0.7738  0.3407
  146MOL    H4746737   6.030   8.297   7.764 -0.5774  0.7188 -0.3141
  146MOL    H4846738   6.246   0.136   7.984 -1.2464  1.7282  0.3670
  146MOL    H4946739   6.167   0.144   8.121  1.2291 -0.4304 -0.2208
  146MOL    C5046740   6.282   8.391   8.110 -0.2421  0.0528 -0.5520
  146MOL    C5146741   6.338   8.288   8.009  0.8078  0.3622 -0.7186
  146MOL    C5246742   6.380   8.325   7.880  1.0199  0.7151  1.0123
  146MOL    C5346743   6.415   8.223   7.791  0.4144  0.0218  0.0667
  146MOL   Cl5446744   6.437   8.259   7.627  0.1492  0.0436  0.2019
  146MOL    C5546745   6.401   8.088   7.823 -0.8036  0.4837 -0.2632
  146MOL    C5646746   6.354   8.051   7.952 -0.9239  0.5668 -0.2840
  146MOL    C5746747   6.325   8.148   8.043 -0.3144  0.0018 -0.1265
  146MOL    C5846748   6.386   0.012   8.216  0.0789 -0.2519  0.3651
  146MOL    H5946749   6.210   8.340   8.175 -0.3490  0.2084 -0.5512
  146MOL    H6046750   6.365   8.430   7.859  0.5430  0.5278  0.4167
  146MOL    H6146751   6.410   8.010   7.748 -1.1947 -0.3920  0.5860
  146MOL    H6246752   6.337   7.946   7.970  2.9208 -0.1343 -0.2919
  146MOL    H6346753   6.271   8.118   8.132  1.3955  0.0551  0.9760
  146MOL    H6446754   6.334   0.049   8.304 -3.0477 -1.0593 -1.0838
  146MOL    H6546755   6.441   8.366   8.263 -0.5891 -0.3063  1.0556
  146MOL    C6646756   6.504   0.108   8.167 -0.0865 -0.2311 -0.3238
  146MOL    C6746757   6.459   0.239   8.106  0.4818  0.1981  0.3588
  146MOL    C6846758   6.362   0.312   8.174  1.1834 -0.9618  0.1248
  146MOL    C6946759   6.296   0.426   8.120  0.4387  0.6636  0.5255
  146MOL   Cl7046760   6.194   0.530   8.208  0.1539 -0.0387  0.2073
  146MOL    C7146761   6.340   0.471   7.995 -0.2900 -0.0613  0.3739
  146MOL    C7246762   6.443   0.400   7.931  0.0498  0.0305 -0.5197
  146MOL    C7346763   6.499   0.283   7.979 -0.6765  0.2074 -0.2115
  146MOL    C7446764   6.607   0.149   8.273  1.1207 -0.0381  0.0319
  146MOL    H7546765   6.560   0.053   8.092  0.0289 -1.5449  0.7114
  146MOL    H7646766   6.353   0.289   8.279 -2.6256  0.7501  0.2657
  146MOL    H7746767   6.300   0.563   7.955 -2.0166 -0.4738  1.0723
  146MOL    H7846768   6.481   0.433   7.835 -0.2839  1.5603 -0.1261
  146MOL    H7946769   6.570   0.228   7.918  0.3618 -0.0825  1.2037
  146MOL    H8046770   6.674   0.216   8.219 -1.6356  1.8934 -1.0814
  146MOL    H8146771   6.555   0.213   8.345  0.5110 -0.5786  0.0705
  146MOL    C8246772   6.696   0.039   8.345  0.3862  0.4980  0.2252
  146MOL    C8346773   6.763   8.389   8.239 -0.7607 -0.5146 -0.1165
  146MOL    C8446774   6.837   0.021   8.137  0.3840  0.2668  0.3310
  146MOL    C8546775   6.883   8.376   8.029 -0.5818 -0.6296 -0.4936
  146MOL   Cl8646776   6.972   0.018   7.897 -0.4967  0.0223 -0.4129
  146MOL    C8746777   6.857   8.237   8.026 -0.6034  0.4931  0.3405
  146MOL    C8846778   6.799   8.168   8.135  0.1285 -0.3374  0.5459
  146MOL    C8946779   6.750   8.248   8.243  0.8858  0.2465 -0.0637
  146MOL    C9046780   6.783   0.099   0.020  0.6224  0.0579 -0.1348
  146MOL    H9146781   6.623   8.407   8.391 -0.9124  1.7120 -0.0477
  146MOL    H9246782   6.855   0.128   8.130 -2.4156  0.6875 -1.7114
  146MOL    H9346783   6.885   8.165   7.950 -0.1263 -0.8808  1.7859
  146MOL    H9446784   6.791   8.060   8.139 -0.4744 -0.2497  2.1354
  146MOL    H9546785   6.709   8.199   8.331 -0.9871  0.2366 -0.9302
  146MOL    H9646786   6.848   0.165   8.398 -0.1033  1.5504  0.7251
  146MOL    H9746787   6.713   0.159   0.077  1.1298  1.0563 -0.5465
  146MOL    C9846788   6.852   8.428   0.112  0.2010  0.4710  0.0709
  146MOL    C9946789   6.998   8.426   0.091  0.1991  0.5977 -0.3661
  146MOL   C10046790   7.079   0.099   0.129 -0.0931 -0.1345 -0.0584
  146MOL   C10146791   7.216   0.086   0.109 -0.1160 -0.2092  0.5479
  146MOL  Cl10246792   7.321   0.212   0.164  0.1365  0.3086 -0.0984
  146MOL   C10346793   7.268   8.402   0.052 -0.2952 -0.7009 -0.0895
  146MOL   C10446794   7.186   8.305   8.433  0.1944  0.0328  0.2679
  146MOL   C10546795   7.049   8.319   0.023 -0.3270 -0.2825  0.4907
  146MOL   C10646796   6.817   0.015   0.259  0.3477 -0.6091  0.0081
  146MOL   H10746797   6.800   8.338   0.081  0.1818  0.7274 -0.6578
  146MOL   H10846798   7.039   0.191   0.169  0.9276 -0.3754  1.5900
  146MOL   H10946799   7.373   8.388   0.029 -0.2538  0.2937 -0.5033
  146MOL   H11046800   7.230   8.225   8.375 -0.8996 -1.7200  1.7763
  146MOL   H11146801   6.980   8.242   8.428 -0.8262  0.5133 -0.4085
  146MOL   H11246802   6.887   8.387   0.314 -1.2899 -1.3768  1.2545
  146MOL   H11346803   6.843   0.114   0.296 -1.2366 -0.0667 -0.2881
  146MOL   C11446804   6.668   8.426   0.297  0.2344 -0.8105  0.2471
  146MOL   C11546805   6.600   8.301   0.233 -0.3832 -0.2960  0.3647
  146MOL   C11646806   6.480   8.309   0.162  0.0559  0.2056  0.6413
  146MOL   C11746807   6.420   8.195   0.096  0.3499  0.0223  0.0976
  146MOL  Cl11846808   6.282   8.213   0.001  0.3330 -0.5437 -0.3730
  146MOL   C11946809   6.487   8.075   0.094  1.3551  0.2473 -0.3258
  146MOL   C12046810   6.609   8.063   0.158  0.1155 -0.6686  0.2244
  146MOL   C12146811   6.666   8.170   0.230 -0.4931 -0.2127 -0.1370
  146MOL   C12246812   6.668   8.413   0.447 -0.0430 -0.0562 -0.0662
  146MOL   H12346813   6.617   0.081   0.264  1.5909 -0.2154 -0.2364
  146MOL   H12446814   6.434   8.406   0.156  3.1885  1.6648 -0.4595
  146MOL   H12546815   6.446   7.986   0.048  1.3936  1.4244 -2.6658
  146MOL   H12646816   6.666   7.972   0.149 -1.0431 -1.3303 -0.6646
  146MOL   H12746817   6.768   8.153   0.262 -0.0178  1.8600 -0.4274
  146MOL   H12846818   6.728   8.324   0.464  0.6995  1.0014  3.1320
  146MOL   H12946819   6.710   0.069   0.490  1.5608 -0.1744 -1.3350
  146MOL   C13046820   6.531   8.389   0.510  0.0706 -0.0868 -0.3719
  146MOL   C13146821   6.550   8.322   0.646 -0.2461  0.4147 -0.1125
  146MOL   C13246822   6.498   8.193   0.666 -0.0585 -0.2661  0.3903
  146MOL   C13346823   6.506   8.138   0.791 -0.5828  0.5700 -0.3099
  146MOL  Cl13446824   6.445   7.976   0.814 -0.0546  0.1132  0.4239
  146MOL   C13546825   6.579   8.207   0.896  0.1996 -0.2370  0.5966
  146MOL   C13646826   6.624   8.341   0.884 -0.2662 -0.0725  0.9958
  146MOL   C13746827   6.610   8.394   0.755 -0.6045  0.5395  0.4239
  146MOL   C13846828   6.460   0.091   0.512  1.0323 -0.5922 -0.3982
  146MOL   H13946829   6.469   8.319   0.454  0.9893 -1.6328  0.5130
  146MOL   H14046830   6.460   8.131   0.586  0.8934 -2.8310  1.8367
  146MOL   H14146831   6.582   8.168   0.997 -3.4084  0.1390  0.9225
  146MOL   H14246832   6.660   8.395   0.971  2.6903  1.7222 -1.2568
  146MOL   H14346833   6.648   0.054   0.722 -0.1514 -0.0521 -0.7709
  146MOL   H14446834   6.515   0.161   0.575  0.4138 -0.9927  0.6177
  146MOL   H14546835   6.447   0.135   0.413 -1.5839 -0.5905 -0.1060
  146MOL   C14646836   6.316   0.075   0.571  0.6157  0.2320 -0.5131
  146MOL   C14746837   6.261   0.207   0.617  0.5732  0.4851 -1.0380
  146MOL   C14846838   6.208   0.306   0.530  0.1898 -0.1101 -0.1578
  146MOL   C14946839   6.155   0.427   0.580 -0.0012  0.3056  0.1631
  146MOL  Cl15046840   6.096   0.555   0.484 -0.3994  0.1782 -0.3575
  146MOL   C15146841   6.150   0.447   0.720  0.0641 -0.2559  0.4331
  146MOL   C15246842   6.207   0.352   0.809  0.6631  0.1796 -0.3555
  146MOL   C15346843   6.257   0.231   0.756 -0.4244 -0.0359 -0.2248
  146MOL   C15446844   6.217   0.011   0.479  0.2927  0.3825 -0.0235
  146MOL   H15546845   6.321   0.008   0.657 -2.0058  0.5015 -0.1271
  146MOL   H15646846   6.206   0.282   0.425 -1.7892  0.7807 -0.3376
  146MOL   H15746847   6.124   0.542   0.765 -1.4748  0.5637 -2.0738
  146MOL   H15846848   6.212   0.379   0.913 -0.5545 -1.3577  0.1321
  146MOL   H15946849   6.302   0.165   0.828  0.5004  0.2970 -0.4937
  146MOL   H16046850   6.135   0.072   0.444  0.7489 -0.1866 -2.1544
  146MOL   H16146851   6.265   0.012   0.381  0.0727 -0.2828 -0.1406
  146MOL   C16246852   6.149   8.307   0.506 -0.0698  0.0645  0.0959
  146MOL   C16346853   6.104   8.288   0.647  0.3261  0.0624  0.6646
  146MOL   C16446854   6.033   8.389   0.715 -0.2533 -0.0636 -0.5434
  146MOL   C16546855   5.984   8.358   0.842 -0.2743  0.3146  0.2802
  146MOL  Cl16646856   5.905   0.041   0.934 -0.1515 -0.1374  0.2468
  146MOL   C16746857   6.008   8.232   0.902  0.3946 -0.4253  0.3741
  146MOL   C16846858   6.082   8.136   0.835  0.2219  0.2348  0.5612
  146MOL   C16946859   6.127   8.160   0.704  0.4639  0.2995 -0.4660
  146MOL   C17046860   6.034   8.282   0.413 -0.1953  0.1043  0.0672
  146MOL   H17146861   6.229   8.235   0.488  0.7680  1.4730 -2.0144
  146MOL   H17246862   6.002   0.051   0.679  0.8758 -0.2273 -1.9896
  146MOL   H17346863   5.967   8.208   0.999  0.4974  1.0417  0.7907
  146MOL   H17446864   6.087   8.038   0.880 -1.6305 -0.8681 -1.5608
  146MOL   H17546865   6.193   8.091   0.654 -0.6555 -0.6361 -0.6567
  146MOL   H17646866   5.952   8.348   0.442  0.6992  1.1143  0.3564
  146MOL   H17746867   6.060   8.319   0.314  1.4702 -0.6095  0.2259
  146MOL   C17846868   5.993   8.132   0.397  0.7818 -0.2758  0.3327
  146MOL   C17946869   5.854   8.104   0.355  0.5961 -0.1809 -0.0559
  146MOL   C18046870   5.780   8.002   0.422  0.5060  0.1263 -0.7832
  146MOL   C18146871   5.656   7.966   0.364  0.5860 -0.1923  0.7475
  146MOL  Cl18246872   5.579   7.825   0.417  0.0900 -0.0950  0.0685
  146MOL   C18346873   5.600   8.033   0.250 -0.4556 -0.3483 -0.7702
  146MOL   C18446874   5.681   8.131   0.189  0.0287 -0.5267 -0.2671
  146MOL   C18546875   5.799   8.168   0.246  0.1751 -0.0561  0.2066
  146MOL   C18646876   6.095   8.062   0.300  0.4774 -0.2785  0.2090
  146MOL   H18746877   5.999   8.075   0.490  0.1682 -1.5748 -0.4225
  146MOL   H18846878   5.814   7.932   0.497  1.6110  0.3264 -1.0950
  146MOL   H18946879   5.511   7.993   0.204 -0.7499  0.1349 -0.6263
  146MOL   H19046880   5.645   8.177   0.098  0.1718 -1.4010 -0.7777
  146MOL   H19146881   5.855   8.246   0.196 -1.8784  0.6801 -1.0014
  146MOL   H19246882   6.105   8.117   0.206 -1.9820  1.3559  0.8641
  146MOL   H19346883   6.192   8.056   0.349  1.5639  0.5477 -1.7701
  146MOL   C19446884   6.064   7.908   0.267  0.3530 -0.1241  1.0341
  146MOL   C19546885   6.130   7.882   0.134  0.2782  0.2652  0.6233
  146MOL   C19646886   6.256   7.810   0.128  0.5885 -0.4157 -0.3127
  146MOL   C19746887   6.304   7.769   8.435 -0.4424  0.4424  0.4540
  146MOL  Cl19846888   6.449   7.679   8.410  0.0464 -0.3093 -0.1713
  146MOL   C19946889   6.250   7.828   8.321  0.6062 -0.1661  0.6275
  146MOL   C20046890   6.140   7.909   8.333 -0.1874  1.1887  0.9653
  146MOL   C20146891   6.074   7.938   0.020 -0.4781 -0.0791  0.0106
  146MOL   C20246892   6.097   7.809   0.387  0.7646  0.8106 -0.2403
  146MOL   H20346893   5.960   7.901   0.237  0.1021 -1.2838  2.1172
  146MOL   H20446894   6.311   7.772   0.214  0.3175  0.1635  0.1192
  146MOL   H20546895   6.289   7.792   8.226 -3.3870 -0.9647 -0.7923
  146MOL   H20646896   6.104   7.954   8.242 -2.0665 -2.0493  0.0183
  146MOL   H20746897   5.983   7.997   0.022  1.4464  3.0148  0.2775
  146MOL   H20846898   6.200   7.824   0.417  0.5294  1.9961  0.0071
  146MOL   H20946899   6.041   7.851   0.470  1.1479  1.7097 -0.4285
  146MOL   C21046900   6.065   7.659   0.367 -0.4379 -0.1530  0.1148
  146MOL   C21146901   6.094   7.581   0.494 -0.6973  0.1315  0.1175
  146MOL   C21246902   6.210   7.510   0.512  0.3657  0.3250  0.4949
  146MOL   C21346903   6.247   7.451   0.635  0.2964  0.1659 -0.2613
  146MOL  Cl21446904   6.387   7.352   0.654  0.2470 -0.3485 -0.1605
  146MOL   C21546905   6.157   7.461   0.742  0.2226 -0.5908  0.5123
  146MOL   C21646906   6.029   7.519   0.720 -0.1444  0.1790 -0.2163
  146MOL   C21746907   6.003   7.586   0.602 -0.2377 -0.1473 -0.7686
  146MOL   C21846908   5.923   7.631   0.295  0.0459  0.0445 -0.5013
  146MOL   H21946909   6.143   7.631   0.297  0.9848  2.5487  0.5377
  146MOL   H22046910   6.284   7.510   0.434  1.4156  1.1413  1.4557
  146MOL   H22146911   6.185   7.418   0.837 -0.8562 -1.8475  0.2751
  146MOL   H22246912   5.960   7.523   0.803  1.0996 -1.1650  0.9130
  146MOL   H22346913   5.912   7.642   0.586 -0.4400  0.0163  0.8698
  146MOL   H22446914   5.843   7.649   0.366 -1.5470 -1.6817 -1.8026
  146MOL   H22546915   5.917   7.700   0.211  2.0012 -0.9238 -1.4672
  146MOL   C22646916   5.914   7.489   0.229  0.2596 -0.3305 -0.0774
  146MOL   C22746917   6.022   7.472   0.124  0.5001  0.5239 -0.6229
  146MOL   C22846918   5.989   7.508   8.428  0.1756 -0.3684 -0.1999
  146MOL   C22946919   6.065   7.471   8.319  0.3577 -0.4922 -0.1732
  146MOL  Cl23046920   6.009   7.511   8.159 -0.0459 -0.0871 -0.3961
  146MOL   C23146921   6.191   7.413   8.345  0.3575  0.2617  0.0770
  146MOL   C23246922   6.238   7.382   0.039  0.2764 -0.9810  0.4466
  146MOL   C23346923   6.147   7.406   0.146  0.2777 -0.4422  0.3131
  146MOL   C23446924   5.897   7.369   0.320  0.7826  0.5541  0.2612
  146MOL   H23546925   5.830   7.492   0.159  0.9152 -2.7792 -1.0527
  146MOL   H23646926   5.895   7.551   8.397  0.7740  0.6046 -0.6935
  146MOL   H23746927   6.261   7.410   8.263  0.1313  1.9836 -0.2057
  146MOL   H23846928   6.325   7.318   0.042 -0.5715 -2.1170  0.8811
  146MOL   H23946929   6.168   7.365   0.244  2.8590  1.3943  0.5842
  146MOL   H24046930   5.919   7.277   0.266 -1.8171  1.1258 -1.8651
  146MOL   H24146931   5.965   7.373   0.406  2.1318 -0.1352 -0.7503
  146MOL   C24246932   5.752   7.377   0.373  0.4547 -0.8978 -0.3456
  146MOL   C24346933   5.637   7.377   0.267 -1.2470 -0.3256 -0.4909
  146MOL   C24446934   5.522   7.451   0.290  0.3957 -0.1506 -0.2672
  146MOL   C24546935   5.412   7.427   0.200  0.8975  0.4234  0.1059
  146MOL  Cl24646936   5.254   7.485   0.238 -0.0523 -0.0944  0.0406
  146MOL   C24746937   5.424   7.335   0.091  0.6282  0.4501  0.0329
  146MOL   C24846938   5.539   7.264   0.076  0.1171 -0.1636 -0.4946
  146MOL   C24946939   5.650   7.287   0.161 -0.2047 -0.4745  0.3146
  146MOL   C25046940   5.734   7.257   0.462  0.3663  0.8989 -0.2653
  146MOL   H25146941   5.737   7.465   0.434  4.2991 -0.1809 -0.2772
  146MOL   H25246942   5.503   7.518   0.372  0.7830 -2.1273  1.4800
  146MOL   H25346943   5.341   7.335   0.021  1.3410  2.0336 -0.8616
  146MOL   H25446944   5.544   7.184   0.003  1.1023 -0.3255 -0.2497
  146MOL   H25546945   5.735   7.222   0.154  0.5035  0.5119 -0.4125
  146MOL   H25646946   5.693   7.179   0.398  1.0294  0.4546 -0.1454
  146MOL   H25746947   5.819   7.198   0.496 -2.1289 -1.2482  2.6014
  146MOL   C25846948   5.626   7.285   0.573  0.3549 -0.2349 -0.7079
  146MOL   C25946949   5.534   7.164   0.588  0.2978 -0.6229 -0.3774
  146MOL   C26046950   5.402   7.180   0.545  0.8209 -0.5762 -0.3660
  146MOL   C26146951   5.318   7.068   0.563  0.3044 -0.1161  0.9570
  146MOL  Cl26246952   5.145   7.083   0.539  0.3689 -0.4310  0.3695
  146MOL   C26346953   5.369   6.942   0.606  0.6433 -0.2119 -0.0268
  146MOL   C26446954   5.505   6.931   0.633  0.1910  0.0246 -0.5898
  146MOL   C26546955   5.590   7.043   0.632 -0.1104 -0.2844  0.2641
  146MOL   C26646956   5.698   7.330   0.702  0.2066  0.7786  0.3761
  146MOL   H26746957   5.563   7.367   0.537 -1.3972 -0.3050  2.0020
  146MOL   H26846958   5.364   7.278   0.518  1.9718 -0.3222 -1.0538
  146MOL   H26946959   5.309   6.853   0.609 -0.7660  0.6749 -1.2053
  146MOL   H27046960   5.550   6.841   0.672  3.1638  0.3832 -3.0482
  146MOL   H27146961   5.694   7.017   0.649  0.3378 -0.1463 -2.0505
  146MOL   H27246962   5.777   7.264   0.738 -2.9298 -1.5816  3.3600
  146MOL   H27346963   5.751   7.419   0.670  0.9356  0.8055  1.6289
  146MOL   C27446964   5.595   7.371   0.811  0.4157  0.0510  0.2187
  146MOL   C27546965   5.562   7.247   0.908  0.2511 -0.4789 -0.5544
  146MOL   C27646966   5.651   7.189   1.000  0.1438  0.5049  0.5845
  146MOL   C27746967   5.621   7.073   1.078  0.1053  0.1758 -0.2153
  146MOL  Cl27846968   5.735   6.994   1.181 -0.0221  0.1911 -0.1020
  146MOL   C27946969   5.486   7.022   1.067  0.2130 -0.5004 -0.4256
  146MOL   C28046970   5.395   7.079   0.976 -0.0685  0.0983  0.2320
  146MOL   C28146971   5.436   7.186   0.894 -0.1647  0.4220  0.1044
  146MOL   C28246972   5.658   7.475   0.904 -0.2397 -0.3584 -0.7967
  146MOL   H28346973   5.502   7.409   0.767  0.3649 -0.7732 -0.3795
  146MOL   H28446974   5.747   7.236   1.014  0.1529 -0.0716  2.5803
  146MOL   H28546975   5.449   6.945   1.134  0.9085  0.5502  1.1930
  146MOL   H28646976   5.300   7.028   0.978  0.5783 -1.1156  0.2269
  146MOL   H28746977   5.362   7.234   0.831 -0.0832 -0.9862 -1.0707
  146MOL   H28846978   5.603   7.484   0.997 -0.4485  1.3460 -1.0691
  146MOL   H28946979   5.754   7.435   0.934 -0.5947 -0.6621 -0.0767
  146MOL   C29046980   5.677   7.624   0.861  0.1951 -0.6013 -0.0098
  146MOL   C29146981   5.536   7.681   0.833 -0.1751  0.7134 -0.0546
  146MOL   C29246982   5.482   7.674   0.702  0.2026 -0.5225  0.3270
  146MOL   C29346983   5.340   7.703   0.681  0.2565  0.2374  0.3365
  146MOL  Cl29446984   5.292   7.689   0.513  0.0484  0.1891 -0.0306
  146MOL   C29546985   5.262   7.751   0.787 -0.3434  1.0000 -1.3564
  146MOL   C29646986   5.320   7.761   0.920 -0.1864  0.3039 -0.7093
  146MOL   C29746987   5.456   7.735   0.937  0.5663  0.5629  0.1545
  146MOL   C29846988   5.758   7.708   0.963  0.0532 -0.4790  0.6039
  146MOL   H29946989   5.720   7.632   0.761 -2.2252 -1.3116 -1.1486
  146MOL   H30046990   5.539   7.632   0.621  0.7559  1.2464 -0.2388
  146MOL   H30146991   5.159   7.783   0.783 -0.2016  1.5967 -0.5176
  146MOL   H30246992   5.268   7.818   0.995 -1.0710 -0.8701 -0.4257
  146MOL   H30346993   5.501   7.750   1.034  1.3525  0.6361 -0.2184
  146MOL   H30446994   5.703   7.695   1.056 -0.4203 -2.0147  0.1105
  146MOL   H30546995   5.857   7.662   0.974 -0.7727 -2.6983 -1.0682
  146MOL   C30646996   5.772   7.855   0.929  0.5946  0.5698 -0.4850
  146MOL   C30746997   5.835   7.917   1.050 -0.4632 -0.4010 -0.8746
  146MOL   C30846998   5.756   8.005   1.124  0.1859  0.7999  0.1173
  146MOL   C30946999   5.800   8.071   1.242 -0.2618 -0.1278  0.2222
  146MOL  Cl31047000   5.699   8.168   1.335  0.3493 -0.0428 -0.3082
  146MOL   C31147001   5.937   8.061   1.272 -0.5948 -0.9736 -0.4305
  146MOL   C31247002   6.020   7.983   1.196  0.2455 -0.2983 -0.1942
  146MOL   C31347003   5.972   7.908   1.086 -0.6007  0.2701  0.6203
  146MOL   C31447004   5.852   7.882   0.803 -0.5372 -0.3385  0.9463
  146MOL   H31547005   5.674   7.902   0.915 -0.5419 -0.9696  1.8554
  146MOL   H31647006   5.653   8.021   1.096 -0.1092  0.4108  0.9476
  146MOL   H31747007   5.981   8.121   1.350 -0.6706 -0.3624 -0.8508
  146MOL   H31847008   6.125   7.985   1.223  0.1764  1.7557  0.0612
  146MOL   H31947009   6.041   7.847   1.030 -1.5620 -0.4675  0.2180
  146MOL   H32047010   5.860   7.986   0.770 -0.7600 -0.2880  1.0441
  146MOL   H32147011   5.953   7.843   0.817  0.0539  0.0212 -2.0349
  146MOL   H32247012   5.802   7.832   0.720 -0.2575  2.5585 -1.0508
  147MOL     C147013   2.480   4.969   6.653 -0.9453  0.6721  0.0278
  147MOL     C247014   2.585   4.897   6.562 -0.1526 -0.8450 -0.5948
  147MOL     C347015   2.685   4.982   6.506 -0.6506 -0.2700  0.1292
  147MOL     C447016   2.784   4.931   6.422  0.9684  0.0554 -0.2521
  147MOL    Cl547017   2.926   5.022   6.371  0.5615  0.0318 -0.4140
  147MOL     C647018   2.774   4.794   6.382  0.0053 -0.1005  0.5581
  147MOL     C747019   2.673   4.714   6.438 -1.1208  0.7193 -0.1590
  147MOL     C847020   2.577   4.759   6.529  0.3979 -0.3713  0.3143
  147MOL     C947021   2.529   4.949   6.798 -0.4956 -0.1090  0.2019
  147MOL    H1047022   2.382   4.923   6.634 -1.6323  0.8806  2.8765
  147MOL    H1147023   2.676   5.086   6.531 -1.7828 -0.1998 -0.5043
  147MOL    H1247024   2.842   4.752   6.311  0.0403 -2.0570  1.7087
  147MOL    H1347025   2.674   4.613   6.399  0.7772  1.3062 -1.7296
  147MOL    H1447026   2.501   4.698   6.576  0.9550 -0.1880  1.4635
  147MOL    H1547027   2.486   4.856   6.836  2.4791 -0.4840  2.8608
  147MOL    H1647028   2.637   4.939   6.802 -0.3170  1.3102 -0.9105
  147MOL    H1747029   2.476   5.073   6.621 -1.1828  0.5049 -0.4898
  147MOL    C1847030   2.473   5.055   6.898 -0.7977 -0.0430 -0.2503
  147MOL    C1947031   2.324   5.027   6.940  0.2296  0.0331 -0.2021
  147MOL    C2047032   2.226   5.110   6.883  0.5027 -0.5636  0.4833
  147MOL    C2147033   2.096   5.104   6.923  0.2337  0.0355 -0.0661
  147MOL   Cl2247034   1.992   5.218   6.855 -0.0310  0.2188  0.0151
  147MOL    C2347035   2.056   5.010   7.020 -0.0489  0.1809 -0.3746
  147MOL    C2447036   2.153   4.917   7.067 -0.0984 -0.2623  0.0921
  147MOL    C2547037   2.289   4.925   7.026  1.0782 -0.2478 -0.6084
  147MOL    C2647038   2.571   5.077   7.011  0.1630 -0.1008  0.3829
  147MOL    H2747039   2.463   5.150   6.847 -0.1287 -1.3245 -2.8552
  147MOL    H2847040   2.251   5.185   6.809  1.4000 -1.1649  0.1698
  147MOL    H2947041   1.958   4.999   7.064 -0.5896 -1.1257 -1.8635
  147MOL    H3047042   2.128   4.855   7.152  3.0866 -2.2718 -0.3211
  147MOL    H3147043   2.354   4.854   7.074  1.1487  0.2858  0.0979
  147MOL    H3247044   2.599   4.977   7.043 -1.1859 -1.2135 -1.7719
  147MOL    H3347045   2.657   5.130   6.969  1.8651 -1.2895  2.2916
  147MOL    C3447046   2.511   5.152   7.129  0.4656  0.1262 -0.2458
  147MOL    C3547047   2.606   5.133   7.247 -0.1566  0.3182 -0.6760
  147MOL    C3647048   2.555   5.077   7.371 -0.2027  0.7191  0.2304
  147MOL    C3747049   2.635   5.083   7.486  0.2055  0.0451 -0.5759
  147MOL   Cl3847050   2.570   5.019   7.636  0.0613  0.6031 -0.0209
  147MOL    C3947051   2.762   5.140   7.480 -0.0742 -0.4826 -0.6909
  147MOL    C4047052   2.811   5.195   7.360  0.4433  0.5710 -0.1797
  147MOL    C4147053   2.741   5.184   7.241 -0.5120  0.4014 -0.2142
  147MOL    C4247054   2.468   5.304   7.105 -0.3440 -0.5209 -0.0210
  147MOL    H4347055   2.423   5.104   7.172 -0.0762 -0.8701 -2.4129
  147MOL    H4447056   2.456   5.034   7.371 -0.2663  0.8644  0.3646
  147MOL    H4547057   2.822   5.148   7.569 -1.2217  0.1272  0.0267
  147MOL    H4647058   2.908   5.241   7.355  0.0424  1.1956 -2.5887
  147MOL    H4747059   2.792   5.223   7.155 -1.4867  2.3121  0.0626
  147MOL    H4847060   2.378   5.312   7.045 -0.3948  1.8304  0.3323
  147MOL    H4947061   2.430   5.334   7.203  2.9514 -2.4583  1.9720
  147MOL    C5047062   2.568   5.415   7.068 -0.3695  0.1882 -0.3913
  147MOL    C5147063   2.621   5.388   6.927 -0.4503 -0.1842  0.2930
  147MOL    C5247064   2.757   5.347   6.910 -0.0991  0.5215 -0.1116
  147MOL    C5347065   2.800   5.328   6.774  0.1880  0.4257 -0.2967
  147MOL   Cl5447066   2.959   5.283   6.741 -0.1319 -0.2084  0.2281
  147MOL    C5547067   2.710   5.355   6.669 -0.4533 -0.0972 -0.0381
  147MOL    C5647068   2.575   5.394   6.694  0.3691 -0.0655 -0.4383
  147MOL    C5747069   2.534   5.410   6.823  0.3254  0.1605 -0.2647
  147MOL    C5847070   2.521   5.560   7.072 -0.1648 -0.3475 -0.4780
  147MOL    H5947071   2.650   5.409   7.139  0.4594  1.1595 -1.2397
  147MOL    H6047072   2.829   5.334   6.990 -0.7641 -1.4002  0.1984
  147MOL    H6147073   2.744   5.348   6.567 -3.3514 -0.3808 -1.0296
  147MOL    H6247074   2.498   5.408   6.619 -2.0267  0.1943  2.0070
  147MOL    H6347075   2.433   5.441   6.846  0.1099 -0.6446 -0.1271
  147MOL    H6447076   2.576   5.615   6.996  0.0229 -0.2220 -0.2497
  147MOL    H6547077   2.421   5.546   7.030 -0.6794  1.0431  0.2560
  147MOL    C6647078   2.541   5.637   7.205  0.4311  0.5260 -0.0365
  147MOL    C6747079   2.688   5.633   7.240 -0.0676 -0.1115  0.2523
  147MOL    C6847080   2.787   5.702   7.171 -0.6881 -0.4423  0.1766
  147MOL    C6947081   2.925   5.706   7.214 -0.1897  0.3042  0.0946
  147MOL   Cl7047082   3.037   5.802   7.128 -0.2215 -0.3992 -0.2941
  147MOL    C7147083   2.961   5.631   7.328 -0.6502  0.0476 -0.6660
  147MOL    C7247084   2.859   5.558   7.401 -0.3304 -0.2313 -0.9300
  147MOL    C7347085   2.726   5.557   7.357 -0.1097 -0.8033 -0.1516
  147MOL    C7447086   2.482   5.780   7.191  0.7709 -0.7894 -0.4575
  147MOL    H7547087   2.485   5.582   7.280  1.3058  1.6387  1.4599
  147MOL    H7647088   2.748   5.755   7.086  0.1917 -0.8870 -0.5157
  147MOL    H7747089   3.063   5.636   7.364 -1.0559  0.0313  0.4946
  147MOL    H7847090   2.893   5.503   7.488  0.7861 -1.3434 -2.0295
  147MOL    H7947091   2.649   5.500   7.405 -1.2841  0.0364 -1.0132
  147MOL    H8047092   2.525   5.835   7.107  0.4008  0.8249  0.3786
  147MOL    H8147093   2.379   5.760   7.163  0.7079  0.1017 -0.8775
  147MOL    C8247094   2.468   5.874   7.315  0.4249 -0.3302 -0.4844
  147MOL    C8347095   2.605   5.933   7.344 -0.3996 -0.6291  0.8894
  147MOL    C8447096   2.678   5.878   7.452 -0.1998 -1.1410  0.6590
  147MOL    C8547097   2.797   5.944   7.493  0.8353 -0.0073  0.3586
  147MOL   Cl8647098   2.883   5.893   7.635 -0.2367 -0.0524  0.1912
  147MOL    C8747099   2.842   6.060   7.421 -0.2468  0.7192 -0.3249
  147MOL    C8847100   2.768   6.115   7.316 -0.2401 -0.3868  0.2973
  147MOL    C8947101   2.651   6.049   7.277  0.1799  0.4428 -0.5027
  147MOL    C9047102   2.351   5.975   7.297 -0.0384  0.5724  0.0709
  147MOL    H9147103   2.435   5.816   7.401  1.2061  0.2133  0.1997
  147MOL    H9247104   2.650   5.793   7.511 -0.2497 -1.4401  0.2095
  147MOL    H9347105   2.930   6.110   7.460 -0.5085  0.7711  0.2025
  147MOL    H9447106   2.806   6.200   7.262  2.7523 -1.7235  0.1440
  147MOL    H9547107   2.598   6.092   7.194 -1.1298  1.7666  0.9778
  147MOL    H9647108   2.368   6.022   7.200  0.7369 -0.7498 -0.4432
  147MOL    H9747109   2.260   5.917   7.286  1.3005 -1.5112 -0.3620
  147MOL    C9847110   2.325   6.083   7.408  0.6689 -0.0849 -0.0520
  147MOL    C9947111   2.226   6.193   7.364  0.2376  0.4966 -1.2932
  147MOL   C10047112   2.090   6.158   7.328  0.2667  0.0305 -0.1955
  147MOL   C10147113   1.999   6.254   7.284  0.4222 -0.1190  0.8703
  147MOL  Cl10247114   1.843   6.216   7.228 -0.3715  0.0188  0.2728
  147MOL   C10347115   2.039   6.393   7.273  0.8159 -0.2511  0.0518
  147MOL   C10447116   2.170   6.423   7.314 -0.1953  0.1074  0.1415
  147MOL   C10547117   2.257   6.327   7.360  0.7614  0.2068 -0.2334
  147MOL   C10647118   2.273   6.019   7.545  0.6648  0.0988  0.5934
  147MOL   H10747119   2.419   6.134   7.429 -0.4000  1.7888  0.2379
  147MOL   H10847120   2.048   6.059   7.326 -1.0898  0.5328  1.9089
  147MOL   H10947121   1.976   6.461   7.217  1.2448  0.2717  0.2012
  147MOL   H11047122   2.202   6.527   7.312 -0.9759  0.3543  0.3191
  147MOL   H11147123   2.356   6.365   7.382 -0.8066  4.2115  0.2735
  147MOL   H11247124   2.188   6.073   7.586  0.5347  0.3773 -0.0438
  147MOL   H11347125   2.249   5.913   7.532  0.3206  0.1389  0.8779
  147MOL   C11447126   2.390   6.023   7.655 -0.5575 -0.7748 -0.5467
  147MOL   C11547127   2.440   6.163   7.686  0.7071 -0.2340 -0.0400
  147MOL   C11647128   2.584   6.186   7.666  0.4585 -0.1913  0.9212
  147MOL   C11747129   2.635   6.310   7.688  0.0936 -0.1925 -0.3859
  147MOL  Cl11847130   2.805   6.342   7.660 -0.0420 -0.2264  0.0415
  147MOL   C11947131   2.555   6.416   7.727  0.1828  0.7531 -0.4093
  147MOL   C12047132   2.418   6.386   7.769  0.3849 -0.3329  0.2416
  147MOL   C12147133   2.364   6.263   7.746  0.1066  0.1572 -0.3860
  147MOL   C12247134   2.349   5.957   7.787  0.2113 -0.0549  0.1375
  147MOL   H12347135   2.476   5.973   7.611  0.7213 -0.0569  1.0952
  147MOL   H12447136   2.654   6.111   7.632  0.0656 -0.3829  0.5349
  147MOL   H12547137   2.603   6.513   7.733  0.5237  0.5590  0.0352
  147MOL   H12647138   2.359   6.468   7.807  0.6216  1.0432 -2.2527
  147MOL   H12747139   2.258   6.254   7.767  0.0099  0.9244 -0.5283
  147MOL   H12847140   2.407   5.997   7.870 -1.3331  0.7004  0.8764
  147MOL   H12947141   2.252   5.996   7.817  1.1836  2.8876 -0.4116
  147MOL   C13047142   2.365   5.802   7.781 -0.1898 -0.2685 -0.2818
  147MOL   C13147143   2.509   5.757   7.812  0.0716 -0.3251 -0.5312
  147MOL   C13247144   2.560   5.649   7.741 -0.0574 -0.5315 -0.0456
  147MOL   C13347145   2.686   5.594   7.779  1.0688  0.0159  0.2013
  147MOL  Cl13447146   2.751   5.449   7.697 -0.2599  0.1678  0.3659
  147MOL   C13547147   2.759   5.658   7.881 -0.2379  0.4223  0.5062
  147MOL   C13647148   2.713   5.770   7.948 -0.1195 -0.3495  0.3046
  147MOL   C13747149   2.585   5.818   7.916  0.5916 -0.9883 -0.4195
  147MOL   C13847150   2.258   5.714   7.844 -0.3159  0.0244 -0.4150
  147MOL   H13947151   2.356   5.778   7.675  1.8383 -1.1828 -0.2775
  147MOL   H14047152   2.510   5.616   7.651  0.0078  1.8718 -0.9942
  147MOL   H14147153   2.851   5.606   7.902 -1.0309 -0.9638  0.5746
  147MOL   H14247154   2.770   5.822   8.024 -0.0759 -0.4716  0.3572
  147MOL   H14347155   2.553   5.900   7.978  1.2163 -1.6643  0.8411
  147MOL   H14447156   2.268   5.614   7.803  0.5418  0.0537 -0.2788
  147MOL   H14547157   2.284   5.692   7.947 -0.2535 -0.7354 -0.5965
  147MOL   C14647158   2.102   5.760   7.846  0.2870  0.0221 -0.0792
  147MOL   C14747159   2.045   5.808   7.717 -0.1052 -0.9572 -0.5094
  147MOL   C14847160   2.051   5.733   7.599  0.2176  0.0429  1.1540
  147MOL   C14947161   1.991   5.774   7.472 -0.7349 -0.6087  0.2603
  147MOL  Cl15047162   1.983   5.654   7.348 -0.3632  0.3329 -0.1902
  147MOL   C15147163   1.920   5.896   7.473  0.5436  0.0266  0.7767
  147MOL   C15247164   1.916   5.978   7.588  0.6379  0.0028 -0.4172
  147MOL   C15347165   1.975   5.930   7.710 -0.8515 -0.1345 -0.2909
  147MOL   C15447166   2.015   5.653   7.912  0.3186  0.1870 -0.2828
  147MOL   H15547167   2.100   5.851   7.906 -0.2258  0.7470 -1.1679
  147MOL   H15647168   2.108   5.641   7.602 -1.2322 -0.8501  1.6565
  147MOL   H15747169   1.861   5.915   7.385 -0.3929 -0.6698  1.2556
  147MOL   H15847170   1.864   6.071   7.602  0.3172 -0.3178  0.5482
  147MOL   H15947171   1.970   5.998   7.793 -0.6785 -1.6445  0.9712
  147MOL   H16047172   2.015   5.571   7.839  0.6984  0.5672 -0.7189
  147MOL   H16147173   2.057   5.608   8.002  2.0393  0.5960 -0.8523
  147MOL   C16247174   1.877   5.703   7.940  0.3704 -0.1979 -0.1707
  147MOL   C16347175   1.780   5.600   7.890 -0.9423 -0.5715  0.5388
  147MOL   C16447176   1.770   5.480   7.958 -0.5024 -0.4680  0.2483
  147MOL   C16547177   1.673   5.386   7.916 -0.2827  0.3684  0.3640
  147MOL  Cl16647178   1.654   5.240   8.007 -0.0082  0.0560  0.2558
  147MOL   C16747179   1.598   5.406   7.798  0.0851 -0.1489  0.1076
  147MOL   C16847180   1.618   5.523   7.720  0.2319 -0.1510  0.3460
  147MOL   C16947181   1.713   5.616   7.771  0.2844 -0.0891 -0.8804
  147MOL   C17047182   1.849   5.725   8.094 -0.2421 -0.2490 -0.3918
  147MOL   H17147183   1.853   5.799   7.896  0.3747 -0.0368  0.1763
  147MOL   H17247184   1.832   5.452   8.042  1.9667 -0.5964 -1.5584
  147MOL   H17347185   1.524   5.338   7.760  1.7323 -2.5373  1.0319
  147MOL   H17447186   1.578   5.559   7.627 -0.6153  0.0609  0.7860
  147MOL   H17547187   1.731   5.705   7.711  0.3454  0.9494  0.6630
  147MOL   H17647188   1.745   5.747   8.117 -0.3244  0.8037 -1.7386
  147MOL   H17747189   1.880   5.632   8.142  0.9432  0.6523  0.6249
  147MOL   C17847190   1.928   5.839   8.164  0.3103 -0.6996  0.0945
  147MOL   C17947191   1.893   5.980   8.114  0.5224 -0.2908 -0.0153
  147MOL   C18047192   2.000   6.075   8.089 -0.4333  0.1704 -0.1816
  147MOL   C18147193   1.965   6.203   8.041  0.0993 -0.1314  0.3792
  147MOL  Cl18247194   2.087   6.325   8.012  0.0898 -0.2849 -0.0269
  147MOL   C18347195   1.834   6.240   8.024  0.3012  0.2795 -0.2972
  147MOL   C18447196   1.733   6.145   8.034 -0.1689  0.3145 -0.3217
  147MOL   C18547197   1.757   6.013   8.080 -0.8280  0.0632  0.2994
  147MOL   C18647198   1.914   5.836   8.319  0.4179  0.1006  0.4137
  147MOL   H18747199   2.035   5.820   8.159  0.6860  0.6157  2.4486
  147MOL   H18847200   2.103   6.049   8.106 -0.1550  0.1252 -1.8210
  147MOL   H18947201   1.817   6.338   7.983 -2.1642 -1.2088 -3.0258
  147MOL   H19047202   1.631   6.174   8.011 -0.8112  1.0260  3.1138
  147MOL   H19147203   1.680   5.939   8.092 -1.0610  0.1771 -0.4417
  147MOL   H19247204   1.967   5.745   8.343 -0.5212 -0.1076  1.7532
  147MOL   H19347205   1.962   5.927   8.354  2.5427 -0.4549 -0.9398
  147MOL   C19447206   1.775   5.835   8.381  0.2774 -0.6883  0.0272
  147MOL   C19547207   1.701   5.701   8.365  1.1486 -0.9471 -0.4931
  147MOL   C19647208   1.760   5.574   8.383 -0.7484  0.7300  0.4139
  147MOL   C19747209   1.697   5.454   8.351  0.7074 -0.0945 -0.0618
  147MOL  Cl19847210   1.775   5.300   8.378  0.3075  0.1682  0.2611
  147MOL   C19947211   1.566   5.462   8.300  0.3133 -0.1212  0.2316
  147MOL   C20047212   1.495   5.582   8.282 -0.0365  0.0537  0.3615
  147MOL   C20147213   1.567   5.697   8.319  0.6337 -0.7136  0.1542
  147MOL   C20247214   1.790   5.881   0.097  0.1169  0.1151  0.4874
  147MOL   H20347215   1.707   5.901   8.327  2.8210  1.5196 -0.5737
  147MOL   H20447216   1.857   5.571   8.431 -1.1039 -2.2919  1.0973
  147MOL   H20547217   1.526   5.364   8.279  1.7029 -0.9165  1.1677
  147MOL   H20647218   1.395   5.594   8.244 -0.1684 -1.2037  0.3044
  147MOL   H20747219   1.520   5.794   8.318  3.4304  0.7391  1.6661
  147MOL   H20847220   1.696   5.854   0.144 -0.3211 -1.1804 -1.0559
  147MOL   H20947221   1.869   5.826   0.147  1.1084  0.9339 -0.1433
  147MOL   C21047222   1.814   6.034   0.122 -0.8666 -0.0047 -0.0085
  147MOL   C21147223   1.700   6.122   0.071  0.3793 -0.8131  0.1530
  147MOL   C21247224   1.575   6.114   0.137  0.2532  0.7596  0.4546
  147MOL   C21347225   1.475   6.199   0.094  0.2064 -0.1861 -0.6204
  147MOL  Cl21447226   1.312   6.194   0.161 -0.3759  0.3228 -0.1080
  147MOL   C21547227   1.496   6.285   8.422  0.4153 -0.6231 -0.4306
  147MOL   C21647228   1.620   6.292   8.355 -0.1130  0.0504 -0.1414
  147MOL   C21747229   1.722   6.213   8.406  0.3477 -0.6513 -0.8284
  147MOL   C21847230   1.842   6.058   0.274 -0.0429 -0.3103  0.1200
  147MOL   H21947231   1.903   6.069   0.071  0.0422 -1.3471  0.6462
  147MOL   H22047232   1.553   6.038   0.210  0.3084  2.0338  1.8094
  147MOL   H22147233   1.422   6.357   8.390 -0.2527 -0.7692  0.7560
  147MOL   H22247234   1.638   6.352   8.267 -1.2476  0.0880 -0.3576
  147MOL   H22347235   1.820   6.201   8.360  0.7137 -2.2057  0.3152
  147MOL   H22447236   1.754   6.028   0.331 -0.1831  1.4045  0.8560
  147MOL   H22547237   1.918   5.988   0.309 -2.2859 -1.8377  2.1559
  147MOL   C22647238   1.882   6.200   0.319 -0.2041  0.8572  0.3752
  147MOL   C22747239   1.813   6.235   0.451 -0.3582  0.2592 -0.1088
  147MOL   C22847240   1.861   6.175   0.565 -0.2467 -0.0164  0.0496
  147MOL   C22947241   1.817   6.225   0.686  0.4296  0.8098  0.3391
  147MOL  Cl23047242   1.867   6.146   0.827 -0.1120 -0.2104 -0.2412
  147MOL   C23147243   1.721   6.326   0.691  0.4470  0.0284 -0.0234
  147MOL   C23247244   1.666   6.380   0.572  0.7683  0.4199 -0.2570
  147MOL   C23347245   1.719   6.336   0.450  0.0276  0.0088 -0.3166
  147MOL   C23447246   2.035   6.205   0.338 -0.2168  0.2901  0.7077
  147MOL   H23547247   1.848   6.272   0.244  0.5197  0.7412 -0.0711
  147MOL   H23647248   1.939   6.101   0.574 -0.0681  0.4187  2.4552
  147MOL   H23747249   1.683   6.346   0.790  1.9160  2.7619  0.0510
  147MOL   H23847250   1.591   6.456   0.582  1.0876  0.7843 -0.6231
  147MOL   H23947251   1.681   6.375   0.357 -0.7874  1.6461  0.6885
  147MOL   H24047252   2.053   6.284   0.411  1.7800  0.8530 -0.3849
  147MOL   H24147253   2.079   6.116   0.384  1.1261  1.8427  2.4768
  147MOL   C24247254   2.123   6.254   0.222  0.8498  0.4829  0.7445
  147MOL   C24347255   2.067   6.384   0.174 -0.3175 -0.1818  0.7297
  147MOL   C24447256   2.051   6.403   0.031  0.4879  0.2686  0.3714
  147MOL   C24547257   1.990   6.520   8.422  0.1282 -0.6260  0.3052
  147MOL  Cl24647258   1.937   6.516   8.259 -0.2218 -0.2641 -0.0373
  147MOL   C24747259   1.969   6.629   0.072 -1.0357  0.0898 -0.3529
  147MOL   C24847260   1.985   6.616   0.212  0.2109 -0.9557  0.0187
  147MOL   C24947261   2.025   6.492   0.262 -0.0752 -0.3277  0.5030
  147MOL   C25047262   2.270   6.270   0.263 -0.0563 -0.2832  0.7849
  147MOL   H25147263   2.093   6.182   0.146  0.5527 -0.8850  2.1433
  147MOL   H25247264   2.083   6.332   8.391  0.4827  0.2465  0.3916
  147MOL   H25347265   1.936   6.726   0.037 -2.8544 -0.1979  0.5209
  147MOL   H25447266   1.971   6.691   0.288 -1.6354 -1.4213  0.1476
  147MOL   H25547267   2.036   6.473   0.368 -0.7658  0.3609  0.6998
  147MOL   H25647268   2.316   6.350   0.204  0.7308 -0.7338  0.7795
  147MOL   H25747269   2.281   6.299   0.367 -2.7504 -2.1780  1.6523
  147MOL   C25847270   2.361   6.150   0.237 -0.8285 -0.2655  0.4646
  147MOL   C25947271   2.343   6.104   0.093 -0.0802  0.8182 -0.1476
  147MOL   C26047272   2.396   6.180   8.423  0.0305  0.3283  0.8001
  147MOL   C26147273   2.377   6.146   8.287  0.5047  0.0090 -0.1267
  147MOL  Cl26247274   2.433   6.232   8.156  0.4377  0.1225 -0.0358
  147MOL   C26347275   2.305   6.030   8.261  0.8625 -0.2581 -0.2766
  147MOL   C26447276   2.250   5.949   8.368  0.3559 -1.1307 -0.4007
  147MOL   C26547277   2.272   5.986   0.068  0.2195  0.0346  0.3947
  147MOL   C26647278   2.507   6.178   0.274 -0.2645  0.3111  0.8342
  147MOL   H26747279   2.324   6.064   0.292 -1.1730  0.6018  1.5948
  147MOL   H26847280   2.445   6.275   0.008  1.0163  0.3547 -1.6007
  147MOL   H26947281   2.291   6.002   8.158 -1.3671  1.1746 -0.4061
  147MOL   H27047282   2.192   5.862   8.345 -1.1062 -0.0848 -0.7397
  147MOL   H27147283   2.227   5.933   0.150  0.0910 -1.9593 -0.9246
  147MOL   H27247284   2.536   6.278   0.242  1.2286 -0.3311  0.1116
  147MOL   H27347285   2.516   6.191   0.382 -0.7050  1.1519  0.7715
  147MOL   C27447286   2.618   6.079   0.219 -0.4363 -1.0113  0.0571
  147MOL   C27547287   2.750   6.158   0.206  0.6695  0.2340  0.1696
  147MOL   C27647288   2.814   6.153   0.079  0.0808 -0.2244 -0.7154
  147MOL   C27747289   2.948   6.200   0.076  0.6430  0.0763  0.1396
  147MOL  Cl27847290   3.046   6.162   8.368 -0.1708 -0.2011  0.2248
  147MOL   C27947291   3.013   6.261   0.182  0.2807 -0.4310 -1.0047
  147MOL   C28047292   2.944   6.273   0.305 -0.4420 -0.1710  0.5737
  147MOL   C28147293   2.814   6.214   0.316  0.4875 -0.6970 -0.2361
  147MOL   C28247294   2.636   5.961   0.318 -0.3295  0.5956  0.9336
  147MOL   H28347295   2.601   6.047   0.116 -0.7124 -0.7109  0.0101
  147MOL   H28447296   2.765   6.107   8.430 -2.3103 -0.1137  0.5613
  147MOL   H28547297   3.115   6.297   0.175  0.9792 -2.0291  0.4882
  147MOL   H28647298   2.993   6.307   0.395 -0.3477 -3.2643  1.7260
  147MOL   H28747299   2.767   6.209   0.413  0.9077  0.6421  0.0540
  147MOL   H28847300   2.744   5.948   0.330 -0.4964 -0.7209  1.0739
  147MOL   H28947301   2.601   5.989   0.417 -1.3688 -0.7559  0.9648
  147MOL   C29047302   2.570   5.828   0.283 -0.6101 -0.8406 -0.3642
  147MOL   C29147303   2.606   5.776   0.140 -0.5263  0.1890  0.0978
  147MOL   C29247304   2.506   5.767   0.043 -0.6124  0.2510  0.2614
  147MOL   C29347305   2.534   5.711   8.341  0.0063  0.4267  0.4151
  147MOL  Cl29447306   2.421   5.698   8.211 -0.1360  0.1804 -0.5605
  147MOL   C29547307   2.670   5.688   8.316 -0.0021  0.2814  0.0557
  147MOL   C29647308   2.772   5.705   8.415  0.6998  0.1253 -0.1230
  147MOL   C29747309   2.738   5.754   0.103 -0.5949 -0.4463 -0.0397
  147MOL   C29847310   2.592   5.720   0.391 -0.1665  0.3367  0.6465
  147MOL   H29947311   2.465   5.853   0.275 -0.1379  1.6622  0.9104
  147MOL   H30047312   2.405   5.791   0.073 -0.2709  0.0229  1.6315
  147MOL   H30147313   2.688   5.661   8.213 -1.0149 -0.6072  0.0998
  147MOL   H30247314   2.874   5.676   8.397  0.1513 -0.2181 -2.9369
  147MOL   H30347315   2.817   5.769   0.175  0.2727 -0.4511 -0.9796
  147MOL   H30447316   2.544   5.635   0.343 -1.0104  1.1449  0.0509
  147MOL   H30547317   2.699   5.700   0.405  0.1707 -0.3380 -2.4910
  147MOL   C30647318   2.533   5.747   0.526  0.0408  0.1502 -0.2533
  147MOL   C30747319   2.384   5.792   0.523 -0.5347  0.0631  0.2177
  147MOL   C30847320   2.348   5.896   0.608 -0.3503 -0.7128 -0.9761
  147MOL   C30947321   2.214   5.935   0.621 -0.5154  0.2492 -0.0770
  147MOL  Cl31047322   2.166   6.060   0.731 -0.0732  0.0897  0.1039
  147MOL   C31147323   2.116   5.870   0.533 -0.1145 -0.5760 -0.2361
  147MOL   C31247324   2.163   5.781   0.433  0.3260  0.1975  0.5902
  147MOL   C31347325   2.293   5.741   0.433 -0.0912  0.2129 -0.3545
  147MOL   C31447326   2.546   5.616   0.612 -0.4702 -0.6608 -0.7416
  147MOL   H31547327   2.594   5.830   0.561 -0.4176  0.3626  0.0522
  147MOL   H31647328   2.422   5.934   0.677  1.0366 -1.8240 -1.8538
  147MOL   H31747329   2.012   5.895   0.541  0.6430  3.8829 -2.4721
  147MOL   H31847330   2.090   5.733   0.369  0.7755  0.4438 -0.1112
  147MOL   H31947331   2.326   5.661   0.368 -0.7033  1.1675 -1.8804
  147MOL   H32047332   2.546   5.519   0.562  2.1753 -1.8828  1.4931
  147MOL   H32147333   2.631   5.632   0.678 -0.9547 -2.7163  0.4218
  147MOL   H32247334   2.459   5.609   0.678 -0.1989  1.5060 -0.1096
  148MOL     C147335   6.413   5.215   6.926  0.0834  0.2784 -0.8049
  148MOL     C247336   6.401   5.060   6.925 -0.1962 -0.7219 -0.2806
  148MOL     C347337   6.476   4.980   7.017  0.2572  1.2215  0.0264
  148MOL     C447338   6.435   4.848   7.044  0.1568  0.1281 -0.1583
  148MOL    Cl547339   6.492   4.764   7.183  0.0956  0.2720  0.0077
  148MOL     C647340   6.322   4.794   6.975 -0.1429  0.1510 -0.6979
  148MOL     C747341   6.246   4.872   6.886 -0.2143  0.4411 -0.1221
  148MOL     C847342   6.293   5.003   6.862  0.2997 -0.2509 -0.2975
  148MOL     C947343   6.492   5.255   6.801  0.1143 -0.3658 -0.4052
  148MOL    H1047344   6.454   5.241   7.023 -0.4385 -1.4085 -0.1090
  148MOL    H1147345   6.548   5.022   7.085 -1.4939  0.9437  2.1375
  148MOL    H1247346   6.283   4.698   7.004  1.3032 -0.7640 -1.7222
  148MOL    H1347347   6.161   4.826   6.838 -0.8680  1.4790  0.0322
  148MOL    H1447348   6.243   5.071   6.795  1.8548  2.0612  0.8033
  148MOL    H1547349   6.573   5.189   6.772 -0.8652 -1.2003 -1.2971
  148MOL    H1647350   6.419   5.235   6.723  0.9863  1.2700 -1.6439
  148MOL    H1747351   6.316   5.264   6.924  0.9337  2.0512  0.8559
  148MOL    C1847352   6.522   5.408   6.796 -0.4104  0.0790 -0.9566
  148MOL    C1947353   6.624   5.449   6.901  0.1858  0.0841  0.0304
  148MOL    C2047354   6.601   5.567   6.978  0.2938 -0.5929 -0.2113
  148MOL    C2147355   6.697   5.609   7.073 -0.3783 -0.0655 -0.2505
  148MOL   Cl2247356   6.681   5.765   7.154  0.0205 -0.0123  0.7127
  148MOL    C2347357   6.812   5.525   7.100 -0.3093 -0.1693 -0.1803
  148MOL    C2447358   6.835   5.412   7.023 -0.2539 -0.3239  0.5093
  148MOL    C2547359   6.740   5.373   6.929 -0.0516 -0.2267 -0.1752
  148MOL    C2647360   6.576   5.449   6.652 -0.1513  0.2922  0.1849
  148MOL    H2747361   6.432   5.466   6.819  0.9631  1.9095  0.0244
  148MOL    H2847362   6.522   5.634   6.946  1.5096  0.3388 -1.2973
  148MOL    H2947363   6.876   5.549   7.183 -0.3703  0.5103 -0.3278
  148MOL    H3047364   6.920   5.349   7.044 -0.4303 -0.9463 -0.6083
  148MOL    H3147365   6.770   5.285   6.873 -0.7376  0.0944 -1.0563
  148MOL    H3247366   6.669   5.505   6.662 -0.4192  0.5263  1.3721
  148MOL    H3347367   6.593   5.366   6.583  1.2037 -1.0456  2.1119
  148MOL    C3447368   6.493   5.557   6.587  0.2463 -0.1802 -0.2763
  148MOL    C3547369   6.474   5.672   6.682  0.5971 -0.4375  0.2670
  148MOL    C3647370   6.572   5.762   6.726  0.6268 -0.4583 -0.0849
  148MOL    C3747371   6.545   5.864   6.820  0.6056  0.3252  0.3695
  148MOL   Cl3847372   6.670   5.973   6.865  0.4498  0.1062 -0.3821
  148MOL    C3947373   6.410   5.872   6.872 -1.0271  0.8858 -0.4868
  148MOL    C4047374   6.310   5.787   6.828 -0.2680  0.5416  0.1804
  148MOL    C4147375   6.343   5.693   6.733 -0.0193  0.5869  0.4055
  148MOL    C4247376   6.550   5.600   6.455 -0.5606 -0.1064  0.6743
  148MOL    H4347377   6.394   5.514   6.567  0.3217 -0.1364 -0.7368
  148MOL    H4447378   6.675   5.739   6.703  0.2280 -0.2571 -2.0927
  148MOL    H4547379   6.380   5.945   6.946  1.2481  1.3902 -0.0382
  148MOL    H4647380   6.210   5.798   6.867 -0.4672 -3.2956  0.9350
  148MOL    H4747381   6.270   5.620   6.702  1.0759 -0.3951  0.0779
  148MOL    H4847382   6.652   5.631   6.475 -0.2687 -0.7168  0.1271
  148MOL    H4947383   6.554   5.512   6.391 -1.1218 -0.5500  1.2463
  148MOL    C5047384   6.482   5.717   6.382 -0.5455 -0.0737 -0.2284
  148MOL    C5147385   6.572   5.780   6.274 -0.4561 -0.2120 -0.7355
  148MOL    C5247386   6.616   5.697   6.170 -0.0326 -0.0062  0.5187
  148MOL    C5347387   6.689   5.747   6.058 -1.0166 -0.6534  0.1411
  148MOL   Cl5447388   6.712   5.656   5.921 -0.0308  0.0086  0.4265
  148MOL    C5547389   6.736   5.879   6.067 -0.6392 -0.3038  0.8910
  148MOL    C5647390   6.716   5.955   6.184  0.5270 -0.3023 -0.1592
  148MOL    C5747391   6.625   5.911   6.284 -0.0339  0.4957  0.1911
  148MOL    C5847392   6.339   5.680   6.321  0.1724  0.0818  0.5550
  148MOL    H5947393   6.468   5.789   6.462  1.1497  1.5189 -1.3055
  148MOL    H6047394   6.576   5.597   6.161  1.1922 -0.4142 -0.5756
  148MOL    H6147395   6.781   5.929   5.983 -0.4146 -0.9481  0.6274
  148MOL    H6247396   6.758   6.052   6.202  1.7780 -0.8403 -0.1537
  148MOL    H6347397   6.600   5.964   6.375  1.0656  1.2662  0.0632
  148MOL    H6447398   6.359   5.628   6.228 -1.9100 -0.5834  0.4508
  148MOL    H6547399   6.293   5.603   6.383  0.1124 -0.0662  0.3229
  148MOL    C6647400   6.243   5.792   6.293 -0.0065  0.0861  1.1727
  148MOL    C6747401   6.132   5.741   6.201 -0.1822 -0.4260 -0.2641
  148MOL    C6847402   6.093   5.820   6.090  0.4204 -0.6166 -0.8501
  148MOL    C6947403   5.983   5.788   6.008 -0.1152  0.0714 -0.9062
  148MOL   Cl7047404   5.949   5.884   5.871  0.2128 -0.1749  0.1144
  148MOL    C7147405   5.913   5.669   6.042  0.1811 -0.3658  0.6157
  148MOL    C7247406   5.958   5.588   6.145 -0.0064 -0.1968  0.8186
  148MOL    C7347407   6.063   5.621   6.228  0.2377 -1.1658  0.0626
  148MOL    C7447408   6.183   5.841   6.426 -0.0981  0.6603 -0.3405
  148MOL    H7547409   6.301   5.871   6.245  0.9960  0.4809  3.0163
  148MOL    H7647410   6.150   5.907   6.064 -1.3682  0.3083 -1.8070
  148MOL    H7747411   5.829   5.628   5.988 -1.0617  0.9248  1.5216
  148MOL    H7847412   5.912   5.494   6.169 -1.5409 -0.3655 -2.5155
  148MOL    H7947413   6.088   5.557   6.312  0.0356  0.2154  1.1893
  148MOL    H8047414   6.149   5.752   6.477 -1.2571  0.9546 -0.5888
  148MOL    H8147415   6.262   5.864   6.498  0.1458  2.9930 -1.2801
  148MOL    C8247416   6.084   5.962   6.426 -0.3013  1.0193  0.7450
  148MOL    C8347417   6.007   5.971   6.560  0.5569 -0.6887 -0.0402
  148MOL    C8447418   5.867   5.951   6.558 -0.1863 -0.3281 -0.4212
  148MOL    C8547419   5.800   5.941   6.679  0.2686  0.0709  0.0516
  148MOL   Cl8647420   5.629   5.908   6.676  0.6899  0.2633  0.1252
  148MOL    C8747421   5.867   5.952   6.801  0.6741  0.0938  0.3093
  148MOL    C8847422   6.007   5.981   6.798  0.1098 -0.9180 -0.3425
  148MOL    C8947423   6.072   5.995   6.675 -0.1191 -0.4054 -1.0904
  148MOL    C9047424   6.165   6.089   6.388  0.0266  0.5555  0.6263
  148MOL    H9147425   6.027   5.943   6.336  2.8269 -0.9941 -0.9164
  148MOL    H9247426   5.811   5.947   6.466  1.3182  1.8162 -1.4811
  148MOL    H9347427   5.814   5.951   6.895 -0.8499 -0.3840 -0.5406
  148MOL    H9447428   6.062   5.983   6.891 -1.5142  0.5186  0.6339
  148MOL    H9547429   6.178   6.011   6.677  0.0268 -1.4088  0.1825
  148MOL    H9647430   6.177   6.157   6.472  0.3484 -0.4476  1.3989
  148MOL    H9747431   6.266   6.056   6.363 -1.1806 -2.8796  0.0144
  148MOL    C9847432   6.118   6.166   6.251 -0.4653 -0.2040 -0.1954
  148MOL    C9947433   5.973   6.204   6.261  0.5315  1.0370 -0.1803
  148MOL   C10047434   5.926   6.309   6.344 -0.1168  0.4579  0.0046
  148MOL   C10147435   5.787   6.323   6.351  0.0764  0.1433  1.0821
  148MOL  Cl10247436   5.727   6.448   6.453  0.1242 -0.6930 -0.1376
  148MOL   C10347437   5.695   6.243   6.285 -0.3095  0.4980  0.0504
  148MOL   C10447438   5.742   6.141   6.203  0.5491 -0.2142 -0.4652
  148MOL   C10547439   5.881   6.123   6.191  0.7386  0.2590 -0.4789
  148MOL   C10647440   6.208   6.292   6.215 -0.1905 -0.7435 -0.4916
  148MOL   H10747441   6.126   6.098   6.166 -0.8061  0.4218 -0.7383
  148MOL   H10847442   5.998   6.377   6.386  0.4243  0.7818 -1.3977
  148MOL   H10947443   5.589   6.244   6.306 -0.0842  2.6786  1.2280
  148MOL   H11047444   5.681   6.076   6.143 -1.1947  2.0840 -1.2448
  148MOL   H11147445   5.924   6.050   6.124  0.8083 -1.0734  0.9860
  148MOL   H11247446   6.145   6.353   6.150  0.1633 -0.7705 -0.8621
  148MOL   H11347447   6.214   6.355   6.304  0.0543  0.2031 -1.1733
  148MOL   C11447448   6.347   6.263   6.152 -0.7465 -0.4052 -0.3723
  148MOL   C11547449   6.324   6.181   6.024  0.8418 -0.8257  0.0847
  148MOL   C11647450   6.400   6.068   5.989 -0.0348 -0.4823  0.0282
  148MOL   C11747451   6.363   5.989   5.873  0.7705 -0.0340  0.1525
  148MOL  Cl11847452   6.449   5.848   5.835 -0.0858 -0.0359 -0.2581
  148MOL   C11947453   6.254   6.029   5.793  0.4149 -0.4814 -0.8617
  148MOL   C12047454   6.177   6.143   5.827  0.1403 -0.6529 -0.5110
  148MOL   C12147455   6.218   6.221   5.938  0.6226 -0.4180  0.1613
  148MOL   C12247456   6.434   6.396   6.126 -0.5409  0.2344  0.2041
  148MOL   H12347457   6.403   6.197   6.219 -0.1058  1.2456  0.7778
  148MOL   H12447458   6.483   6.031   6.046 -1.4327  0.4265  2.7523
  148MOL   H12547459   6.220   5.966   5.712 -0.7592 -1.3016  0.2390
  148MOL   H12647460   6.097   6.172   5.760 -1.2526 -0.1088  1.3552
  148MOL   H12747461   6.153   6.306   5.954  1.7049  0.8658 -2.2035
  148MOL   H12847462   6.535   6.382   6.089 -1.1615 -0.1084 -1.4177
  148MOL   H12947463   6.377   6.449   6.050 -0.7660  2.0748  1.6003
  148MOL   C13047464   6.457   6.476   6.256 -0.0098 -0.6081  0.5413
  148MOL   C13147465   6.526   6.386   6.362 -0.0029 -0.1129 -0.5947
  148MOL   C13247466   6.457   6.342   6.477  0.5967 -0.0926  0.1582
  148MOL   C13347467   6.513   6.251   6.566 -0.0144  0.6134 -0.4203
  148MOL  Cl13447468   6.416   6.178   6.693  0.1545 -0.0069  0.2472
  148MOL   C13547469   6.644   6.209   6.540  0.4879  0.2476 -0.2980
  148MOL   C13647470   6.711   6.253   6.429  0.5269 -0.8502  0.2775
  148MOL   C13747471   6.652   6.335   6.334 -0.1961  0.8645  0.3448
  148MOL   C13847472   6.540   6.604   6.230  0.8557  0.1455 -0.1263
  148MOL   H13947473   6.363   6.506   6.301  0.1738 -0.4226  0.7970
  148MOL   H14047474   6.360   6.373   6.513  0.6043 -0.5822  0.6177
  148MOL   H14147475   6.688   6.137   6.606  3.5178  0.4753 -1.9789
  148MOL   H14247476   6.809   6.211   6.415  0.9456 -0.2802  1.4294
  148MOL   H14347477   6.702   6.380   6.249  0.7806  4.4399  2.7072
  148MOL   H14447478   6.553   6.647   6.329 -0.4119 -0.3915  0.2864
  148MOL   H14547479   6.642   6.584   6.196  0.5547  0.1989 -1.0784
  148MOL   C14647480   6.480   6.691   6.111 -0.0624  0.0245 -0.3156
  148MOL   C14747481   6.339   6.736   6.124  0.1343 -0.6747  0.3922
  148MOL   C14847482   6.263   6.730   6.005  0.2520  0.8469 -0.9071
  148MOL   C14947483   6.135   6.786   6.003 -0.7089  0.7891 -0.1894
  148MOL  Cl15047484   6.056   6.789   5.851 -0.1094  0.0261 -0.1502
  148MOL   C15147485   6.084   6.855   6.113 -0.1567  0.2022 -0.8789
  148MOL   C15247486   6.152   6.842   6.232 -0.2249  0.1574 -0.3095
  148MOL   C15347487   6.280   6.791   6.238 -0.0421  0.0960  0.7102
  148MOL   C15447488   6.582   6.809   6.077  0.5200 -0.6896 -0.1514
  148MOL   H15547489   6.485   6.632   6.019  2.5056  0.6787 -0.6093
  148MOL   H15647490   6.308   6.695   5.914 -0.1349 -2.4550  0.1065
  148MOL   H15747491   5.982   6.892   6.114  0.3997  1.7737  0.8302
  148MOL   H15847492   6.109   6.881   6.323 -2.4065 -1.1708 -0.7485
  148MOL   H15947493   6.338   6.801   6.328  0.1999  1.5287  0.4114
  148MOL   H16047494   6.528   6.897   6.041  0.9611 -0.4439 -0.2030
  148MOL   H16147495   6.622   6.844   6.172 -1.8147  1.6846  0.0490
  148MOL   C16247496   6.695   6.761   5.984  0.2702 -0.2237  0.0430
  148MOL   C16347497   6.646   6.712   5.845 -0.9592  0.2615 -0.3279
  148MOL   C16447498   6.573   6.797   5.762  0.2182  0.0369 -0.2951
  148MOL   C16547499   6.521   6.748   5.640 -0.0211  0.0152  0.8802
  148MOL  Cl16647500   6.427   6.851   5.538  0.1979  0.1144 -0.1499
  148MOL   C16747501   6.561   6.617   5.600 -0.4768  0.3304  0.6506
  148MOL   C16847502   6.636   6.537   5.684 -0.3315  0.4134  0.4321
  148MOL   C16947503   6.680   6.584   5.813 -0.2725  0.4918  0.8102
  148MOL   C17047504   6.811   6.871   5.969  0.3801 -0.2397  0.2512
  148MOL   H17147505   6.746   6.687   6.046 -1.3500 -0.7013  0.8365
  148MOL   H17247506   6.542   6.896   5.790 -0.5996 -0.7228  1.5769
  148MOL   H17347507   6.529   6.578   5.504  1.5995  0.6208 -0.1845
  148MOL   H17447508   6.670   6.439   5.654 -0.5652  1.3185 -3.0888
  148MOL   H17547509   6.744   6.525   5.876 -1.1543 -1.7379 -0.3360
  148MOL   H17647510   6.875   6.820   5.896  1.8436  0.3598  1.0922
  148MOL   H17747511   6.767   6.952   5.912  0.1986  0.1690  0.9670
  148MOL   C17847512   6.893   6.916   6.094 -0.7061  0.4025 -0.8044
  148MOL   C17947513   6.942   6.803   6.183 -0.9962  0.1638 -0.1239
  148MOL   C18047514   6.914   6.784   6.321  0.1799  0.5335  0.1161
  148MOL   C18147515   6.982   6.684   6.396  0.3395 -0.5790  0.2318
  148MOL  Cl18247516   6.952   6.671   6.567  0.0112  0.0600 -0.4180
  148MOL   C18347517   7.072   6.598   6.337  0.2963  0.9939  0.0894
  148MOL   C18447518   7.098   6.608   6.203 -0.7707  0.1902 -0.5039
  148MOL   C18547519   7.033   6.709   6.126 -0.3479 -0.3327  0.2352
  148MOL   C18647520   7.013   7.012   6.055  0.6955 -0.3489  0.4062
  148MOL   H18747521   6.824   6.963   6.164 -0.2805 -1.4570  0.9038
  148MOL   H18847522   6.853   6.860   6.368  1.0520  0.2205  1.7767
  148MOL   H18947523   7.130   6.525   6.392 -3.2034 -0.6740  1.7244
  148MOL   H19047524   7.164   6.537   6.156 -0.2431 -1.7492  2.9503
  148MOL   H19147525   7.060   6.710   6.021  2.0702  0.5239  0.8304
  148MOL   H19247526   7.063   6.958   5.975 -1.4846  1.5887 -2.3434
  148MOL   H19347527   6.973   7.104   6.013  2.9606  0.3949 -0.1845
  148MOL   C19447528   7.107   7.046   6.171  0.4780  0.1649  0.3375
  148MOL   C19547529   7.238   7.105   6.124  0.2817  0.3377 -0.2068
  148MOL   C19647530   7.239   7.241   6.083  0.0139 -0.1240 -0.5306
  148MOL   C19747531   7.359   7.312   6.056  0.0439 -0.0116 -0.6385
  148MOL  Cl19847532   7.351   7.482   6.057 -0.1280  0.2141  0.2350
  148MOL   C19947533   7.477   7.238   6.050  1.0782  0.5845  0.6882
  148MOL   C20047534   7.470   7.099   6.061 -0.0825  0.0098 -0.6531
  148MOL   C20147535   7.352   7.025   6.098 -0.9496 -0.2115  0.0686
  148MOL   C20247536   7.039   7.124   6.282 -0.2850 -0.1004 -0.6439
  148MOL   H20347537   7.122   6.949   6.219 -0.4091 -0.9059 -1.4815
  148MOL   H20447538   7.147   7.293   6.104  0.4010  0.8397 -1.1891
  148MOL   H20547539   7.572   7.287   6.038  0.2278  1.6628 -2.3343
  148MOL   H20647540   7.559   7.042   6.037  1.1325  1.8279 -0.6011
  148MOL   H20747541   7.350   6.919   6.115  1.0745 -0.1720  0.6462
  148MOL   H20847542   7.004   7.222   6.248  1.4168  1.1510  1.0338
  148MOL   H20947543   6.949   7.069   6.308  1.3694 -1.8534  1.6576
  148MOL   C21047544   7.115   7.151   6.426  0.4168 -0.1570  0.3755
  148MOL   C21147545   7.019   7.189   6.537  0.1876  0.4873  0.0347
  148MOL   C21247546   6.915   7.098   6.571  0.2618  0.3794 -0.3639
  148MOL   C21347547   6.825   7.130   6.681  0.2928 -0.4363 -0.1546
  148MOL  Cl21447548   6.700   7.012   6.721  0.5711  0.1229 -0.4739
  148MOL   C21547549   6.824   7.264   6.732 -0.4168 -0.2171  0.6465
  148MOL   C21647550   6.921   7.358   6.684 -0.4366 -0.0310  1.0088
  148MOL   C21747551   7.019   7.319   6.596  0.0141  0.1296  1.0698
  148MOL   C21847552   7.199   7.025   6.465 -0.3485  0.1231  0.1815
  148MOL   H21947553   7.183   7.233   6.407 -0.2179  0.7586  1.9410
  148MOL   H22047554   6.904   7.000   6.528 -0.3291  0.2071  0.1676
  148MOL   H22147555   6.736   7.298   6.785 -0.2392 -1.2555  1.6192
  148MOL   H22247556   6.921   7.464   6.706 -1.7222 -0.2892  2.3477
  148MOL   H22347557   7.086   7.393   6.554 -1.6716  0.4485 -1.0858
  148MOL   H22447558   7.148   6.929   6.457  3.0671 -1.9461  1.7526
  148MOL   H22547559   7.270   7.013   6.383 -3.1679  1.6108 -2.5372
  148MOL   C22647560   7.262   7.017   6.603  0.7309  0.5820  0.0625
  148MOL   C22747561   7.280   6.871   6.641  0.2906  0.4283 -0.0876
  148MOL   C22847562   7.382   6.793   6.570 -0.0235  0.6277 -0.5577
  148MOL   C22947563   7.410   6.662   6.617 -0.1076 -0.3915  0.1942
  148MOL  Cl23047564   7.526   6.566   6.527 -0.0481  0.2616 -0.0938
  148MOL   C23147565   7.343   6.608   6.731  0.1491  0.5953 -0.7848
  148MOL   C23247566   7.242   6.683   6.795  0.0877 -0.0821 -0.3977
  148MOL   C23347567   7.211   6.812   6.749  0.2240  0.2793 -0.2468
  148MOL   C23447568   7.391   7.097   6.614  0.1211  0.2428 -0.0726
  148MOL   H23547569   7.194   7.047   6.682  0.1104 -2.5287  0.7925
  148MOL   H23647570   7.441   6.839   6.492  2.4346 -0.5809  0.5373
  148MOL   H23747571   7.371   6.511   6.771  1.7968  0.3793 -2.3831
  148MOL   H23847572   7.187   6.641   6.878  0.9673 -1.9515 -0.7267
  148MOL   H23947573   7.136   6.867   6.804  0.4832 -0.1130  0.5103
  148MOL   H24047574   7.481   7.047   6.579  0.3199  1.5145 -1.3946
  148MOL   H24147575   7.382   7.182   6.547  2.6728 -0.4933 -1.4294
  148MOL   C24247576   7.404   7.144   6.764 -0.2040 -0.2292  1.0205
  148MOL   C24347577   7.452   7.032   6.853 -0.6475  0.5875 -0.0919
  148MOL   C24447578   7.574   6.964   6.823 -0.5254 -0.5023 -0.2176
  148MOL   C24547579   7.621   6.864   6.901 -0.0112  0.0155  0.0918
  148MOL  Cl24647580   7.783   6.822   6.873 -0.0210  0.2573  0.0429
  148MOL   C24747581   7.554   6.835   7.019  0.0286  0.1207 -0.0136
  148MOL   C24847582   7.442   6.906   7.056  0.6630  0.2114 -0.1728
  148MOL   C24947583   7.384   6.998   6.968 -0.2764 -1.2306 -0.2229
  148MOL   C25047584   7.504   7.263   6.770  0.1805 -0.4816 -0.9337
  148MOL   H25147585   7.309   7.182   6.802  0.2588 -0.1967  2.1643
  148MOL   H25247586   7.625   7.003   6.736  1.3533 -1.1169  0.5705
  148MOL   H25347587   7.592   6.758   7.084 -0.2475  1.7671  2.1562
  148MOL   H25447588   7.394   6.881   7.149  0.1765  1.4416 -0.0831
  148MOL   H25547589   7.293   7.047   6.998  0.6879 -0.3688  1.4091
  148MOL   H25647590   7.578   7.227   6.843 -2.0603 -1.8676  0.7318
  148MOL   H25747591   7.565   7.278   6.682  0.2973 -1.3232 -1.0059
  148MOL   C25847592   7.449   7.405   6.791 -0.6431 -0.0462 -0.1285
  148MOL   C25947593   7.338   7.420   6.898 -0.1640 -0.0752 -1.0196
  148MOL   C26047594   7.227   7.504   6.874  0.2514  0.2036 -0.0717
  148MOL   C26147595   7.126   7.521   6.970 -0.0252 -0.2870 -0.5767
  148MOL  Cl26247596   6.993   7.627   6.938 -0.0810  0.0421  0.0264
  148MOL   C26347597   7.135   7.455   7.094  0.2330 -0.4020 -0.4935
  148MOL   C26447598   7.242   7.364   7.117 -0.1053  0.2785 -0.5166
  148MOL   C26547599   7.345   7.350   7.019  0.0543 -0.1115  0.0077
  148MOL   C26647600   7.571   7.499   6.830 -0.6117 -0.2753  0.0747
  148MOL   H26747601   7.406   7.442   6.698 -0.3913 -1.6581 -0.8910
  148MOL   H26847602   7.216   7.570   6.789 -1.8338 -0.2170 -0.1470
  148MOL   H26947603   7.063   7.471   7.173  0.1800 -3.3691  0.1057
  148MOL   H27047604   7.251   7.311   7.211 -1.6114  2.2809  0.7838
  148MOL   H27147605   7.426   7.284   7.042  0.2686 -0.5541 -1.9326
  148MOL   H27247606   7.535   7.596   6.867 -1.0200  0.2052 -1.5453
  148MOL   H27347607   7.623   7.460   6.918 -1.5639  0.6645  1.0828
  148MOL   C27447608   7.671   7.537   6.712  0.0540  0.3088  0.0022
  148MOL   C27547609   7.604   7.594   6.591  0.4320  0.3256 -0.3362
  148MOL   C27647610   7.531   7.712   6.602  0.0317 -0.9696 -0.4095
  148MOL   C27747611   7.463   7.761   6.492 -0.3999  0.2426 -0.1535
  148MOL  Cl27847612   7.383   7.911   6.511  0.2384 -0.1448  0.6724
  148MOL   C27947613   7.484   7.701   6.362 -0.1728  0.0275 -0.3321
  148MOL   C28047614   7.551   7.578   6.354 -0.2512 -0.3578  0.0163
  148MOL   C28147615   7.616   7.530   6.468  0.6338 -1.2134  0.0419
  148MOL   C28247616   7.783   7.624   6.766 -0.1874  0.2692  0.0558
  148MOL   H28347617   7.716   7.443   6.681  0.9261  0.5038  0.6510
  148MOL   H28447618   7.519   7.766   6.694  1.6061 -2.8331  0.9362
  148MOL   H28547619   7.445   7.743   6.271 -1.2878  1.0794  0.6226
  148MOL   H28647620   7.558   7.523   6.261  0.7428  0.5770 -0.4772
  148MOL   H28747621   7.672   7.438   6.453  0.3320 -1.6729  1.6791
  148MOL   H28847622   7.848   7.656   6.685  0.4857 -0.8900  0.1270
  148MOL   H28947623   7.736   7.713   6.809 -1.2079  1.0865 -2.6079
  148MOL   C29047624   7.887   7.563   6.869  0.3197 -0.5038  0.3453
  148MOL   C29147625   7.979   7.461   6.796  0.1070 -0.5402 -0.4193
  148MOL   C29247626   7.952   7.320   6.809 -0.1290  0.3644 -0.6306
  148MOL   C29347627   8.041   7.232   6.751 -0.2762 -0.0203  0.4987
  148MOL  Cl29447628   8.019   7.061   6.769  0.3634  0.2447  0.1567
  148MOL   C29547629   8.152   7.279   6.681 -0.1076  0.3046  0.3208
  148MOL   C29647630   8.171   7.413   6.652  0.1315 -0.3416  0.0523
  148MOL   C29747631   8.081   7.505   6.708 -0.3181 -0.5876 -0.5514
  148MOL   C29847632   7.964   7.673   6.951 -0.7651 -0.0912  0.3537
  148MOL   H29947633   7.836   7.500   6.941 -1.5731  0.0956 -0.4206
  148MOL   H30047634   7.870   7.290   6.872 -1.8218  3.3193 -1.3449
  148MOL   H30147635   8.221   7.207   6.641  0.9705  0.7047  1.4092
  148MOL   H30247636   8.246   7.442   6.580 -1.5850  0.9979 -1.2487
  148MOL   H30347637   8.106   7.609   6.691  3.1470 -1.0390  1.2163
  148MOL   H30447638   8.048   7.623   6.999 -0.3129 -0.4660 -0.8070
  148MOL   H30547639   8.018   7.739   6.885  0.3790 -0.6111  0.7502
  148MOL   C30647640   7.890   7.751   7.064  0.1470 -0.0315 -0.3305
  148MOL   C30747641   7.804   7.661   7.156 -0.1502 -0.0931  0.4458
  148MOL   C30847642   7.668   7.679   7.154  0.0641  0.0895  0.3180
  148MOL   C30947643   7.587   7.585   7.221  0.8874  0.2680  0.3010
  148MOL  Cl31047644   7.418   7.601   7.231 -0.1691  0.1472  0.2245
  148MOL   C31147645   7.644   7.477   7.294  0.9429 -0.6649  0.0663
  148MOL   C31247646   7.786   7.464   7.291 -0.2242  0.6236  0.4523
  148MOL   C31347647   7.865   7.562   7.230  0.0807 -0.0556 -0.9269
  148MOL   C31447648   7.992   7.832   7.144  0.6021 -0.5001  0.0284
  148MOL   H31547649   7.831   7.828   7.016  0.3806  0.7695  0.6583
  148MOL   H31647650   7.619   7.766   7.112  0.5681  0.8444  1.2568
  148MOL   H31747651   7.573   7.407   7.336 -0.4744  1.5255  1.3967
  148MOL   H31847652   7.841   7.381   7.333 -0.2339  0.3819 -0.0130
  148MOL   H31947653   7.972   7.549   7.230  0.0376 -0.4315  0.1209
  148MOL   H32047654   8.053   7.758   7.195  0.6903 -1.6951 -1.7874
  148MOL   H32147655   8.062   7.888   7.083 -0.0766  0.3640  0.0323
  148MOL   H32247656   7.952   7.904   7.216  3.1744 -1.1847  2.2494
  149MOL     C147657   4.677   1.374   2.921  0.4000 -0.6578  0.5302
  149MOL     C247658   4.664   1.419   2.779  0.3383  0.5393  0.2318
  149MOL     C347659   4.735   1.534   2.738  0.4346  0.4473 -0.3746
  149MOL     C447660   4.738   1.568   2.606  0.4042  0.4454 -0.3374
  149MOL    Cl547661   4.828   1.712   2.555 -0.1037 -0.0292 -0.1840
  149MOL     C647662   4.672   1.493   2.505  0.8051  0.2782 -1.1231
  149MOL     C747663   4.600   1.380   2.547 -0.2382 -0.4617  0.0524
  149MOL     C847664   4.604   1.339   2.681 -0.0798 -0.1416  0.3513
  149MOL     C947665   4.805   1.293   2.934 -0.2964  0.0610  0.8178
  149MOL    H1047666   4.581   1.345   2.963 -0.5631  1.6592 -0.0044
  149MOL    H1147667   4.790   1.594   2.809 -0.0040 -0.8120  1.0494
  149MOL    H1247668   4.684   1.511   2.399 -0.3714  0.6190 -1.2060
  149MOL    H1347669   4.560   1.315   2.470 -0.1404  2.6291 -2.7770
  149MOL    H1447670   4.552   1.246   2.698  1.4657 -1.1916 -0.4983
  149MOL    H1547671   4.810   1.234   2.842 -1.9684 -0.9661  1.3682
  149MOL    H1647672   4.883   1.368   2.925 -1.6148  1.3762  0.0603
  149MOL    H1747673   4.706   1.458   2.983  1.1835  1.5398 -2.6664
  149MOL    C1847674   4.807   1.195   3.052  0.1229  0.0827  0.1397
  149MOL    C1947675   4.688   1.104   3.034  0.1395  0.1176 -0.0136
  149MOL    C2047676   4.687   1.007   2.930  0.4861 -0.3653 -0.4379
  149MOL    C2147677   4.581   0.930   2.907  0.9590  0.5468 -0.4389
  149MOL   Cl2247678   4.563   0.820   2.778  0.0225 -0.5812 -0.1143
  149MOL    C2347679   4.465   0.941   2.986 -0.0423 -0.3071 -0.2958
  149MOL    C2447680   4.470   1.021   3.099 -0.1900  0.6199 -0.2664
  149MOL    C2547681   4.579   1.105   3.127  0.4062 -0.2412  0.7035
  149MOL    C2647682   4.943   1.117   3.058  0.8106 -0.4404 -0.2150
  149MOL    H2747683   4.794   1.250   3.145 -2.3004 -0.0449 -0.1013
  149MOL    H2847684   4.767   1.008   2.858  2.0821 -0.6373  1.2757
  149MOL    H2947685   4.382   0.883   2.950  1.1034 -1.3263 -1.3754
  149MOL    H3047686   4.380   1.031   3.158 -0.0506 -0.8587  0.2176
  149MOL    H3147687   4.570   1.183   3.201 -0.0658  1.9301 -1.5636
  149MOL    H3247688   4.967   1.063   2.967 -0.1828 -0.2755 -0.5784
  149MOL    H3347689   5.020   1.195   3.067  2.5721 -2.1702  0.0337
  149MOL    C3447690   4.950   1.028   3.184  0.1759  0.2564  0.0409
  149MOL    C3547691   4.870   0.897   3.173  0.3219 -0.6118  0.1674
  149MOL    C3647692   4.779   0.871   3.285  0.0832  0.4334  0.9746
  149MOL    C3747693   4.699   0.756   3.287 -0.6231 -0.5694  0.1414
  149MOL   Cl3847694   4.585   0.737   3.415  0.2365 -0.2085  0.1968
  149MOL    C3947695   4.711   0.671   3.182  0.4422 -0.0419  0.5975
  149MOL    C4047696   4.809   0.685   3.078 -0.0483 -0.4159  0.6574
  149MOL    C4147697   4.885   0.806   3.070  0.2933 -0.0050 -0.3296
  149MOL    C4247698   5.105   1.004   3.217  0.9485  0.3367  0.3757
  149MOL    H4347699   4.906   1.078   3.271 -2.8153 -0.0040 -1.2590
  149MOL    H4447700   4.761   0.949   3.358 -1.2177  0.0905  1.0435
  149MOL    H4547701   4.644   0.587   3.195  0.1237  0.2455  0.8456
  149MOL    H4647702   4.808   0.608   3.002 -0.7122 -0.7350  0.9816
  149MOL    H4747703   4.959   0.816   2.992  0.2174 -0.3868 -0.4528
  149MOL    H4847704   5.105   0.917   3.283 -3.7259 -0.4072 -0.4242
  149MOL    H4947705   5.152   0.968   3.125 -0.3399  0.5605 -0.3748
  149MOL    C5047706   5.175   1.131   3.281 -0.4913  0.1991  0.2718
  149MOL    C5147707   5.131   1.170   3.420 -0.7299  0.3621  0.2509
  149MOL    C5247708   5.150   1.092   3.534 -0.3206  0.4135  0.0175
  149MOL    C5347709   5.109   1.126   3.667 -0.2242  0.9868 -0.6631
  149MOL   Cl5447710   5.110   1.005   3.793 -0.2352  0.4915 -0.1434
  149MOL    C5547711   5.048   1.252   3.681  0.4320 -0.6258  0.3360
  149MOL    C5647712   5.018   1.333   3.566 -0.5272  0.4700  0.1531
  149MOL    C5747713   5.066   1.290   3.441  0.7230  0.0078  0.7562
  149MOL    C5847714   5.335   1.114   3.274  0.3255 -0.0814  0.1631
  149MOL    H5947715   5.138   1.217   3.223 -0.9091 -0.5866 -0.6431
  149MOL    H6047716   5.206   1.000   3.526  0.6528  1.0094 -0.1020
  149MOL    H6147717   5.013   1.288   3.777  0.8186 -1.1323  0.6645
  149MOL    H6247718   4.974   1.430   3.578 -0.9690  0.3823 -0.7477
  149MOL    H6347719   5.042   1.350   3.355  0.4240 -0.4961  0.4902
  149MOL    H6447720   5.389   1.152   3.360  0.6443 -0.3640  0.0880
  149MOL    H6547721   5.359   1.008   3.269 -0.6670 -0.2180 -3.2198
  149MOL    C6647722   5.395   1.177   3.150  0.0985 -0.2944  1.0171
  149MOL    C6747723   5.430   1.322   3.161 -0.3787 -0.9741  0.4023
  149MOL    C6847724   5.339   1.429   3.133 -0.2740 -0.0717 -0.2706
  149MOL    C6947725   5.379   1.569   3.131 -0.0953  0.2884 -0.1266
  149MOL   Cl7047726   5.264   1.701   3.108  0.5776 -0.1017 -0.2840
  149MOL    C7147727   5.512   1.601   3.168  0.7228  0.0427 -0.0013
  149MOL    C7247728   5.594   1.492   3.200 -0.0517 -0.4526  0.1196
  149MOL    C7347729   5.559   1.358   3.202 -0.3410 -0.0260  0.6176
  149MOL    C7447730   5.505   1.088   3.088  0.4112 -0.7099  0.1109
  149MOL    H7547731   5.316   1.171   3.075  0.2625  2.3312  0.5534
  149MOL    H7647732   5.235   1.405   3.113 -0.9292  0.9848  1.7804
  149MOL    H7747733   5.549   1.703   3.166  0.7091  0.0408 -1.9315
  149MOL    H7847734   5.696   1.512   3.230 -0.3050 -2.4738  2.5092
  149MOL    H7947735   5.631   1.283   3.232  1.1860  1.3173  0.3823
  149MOL    H8047736   5.573   1.150   3.030 -0.0059 -0.0148  0.3527
  149MOL    H8147737   5.569   1.045   3.166  1.5042  1.3496  0.4041
  149MOL    C8247738   5.450   0.975   3.000  0.0630 -0.3867 -0.1220
  149MOL    C8347739   5.388   1.017   2.870 -0.1618  0.1300 -0.2781
  149MOL    C8447740   5.451   1.117   2.793  0.7789  0.0886  0.1603
  149MOL    C8547741   5.379   1.181   2.689 -0.6639  0.1438  0.4775
  149MOL   Cl8647742   5.457   1.301   2.595  0.1292  0.5587  0.1465
  149MOL    C8747743   5.250   1.140   2.655 -0.3083 -0.1034  0.5694
  149MOL    C8847744   5.192   1.029   2.716 -0.1897  0.1753  0.1638
  149MOL    C8947745   5.263   0.969   2.825 -0.4091  0.3483 -0.3051
  149MOL    C9047746   5.563   0.869   2.972 -0.1652 -0.5602 -0.4442
  149MOL    H9147747   5.366   0.929   3.050 -0.6800  1.6131  0.5041
  149MOL    H9247748   5.551   1.153   2.809  0.6234 -0.0042  1.3647
  149MOL    H9347749   5.211   1.191   2.568  3.2007  1.3212 -0.2665
  149MOL    H9447750   5.097   0.996   2.677  0.7848  0.6929 -2.7746
  149MOL    H9547751   5.229   0.883   2.880  0.3126 -0.6787 -1.4220
  149MOL    H9647752   5.550   0.831   2.871 -0.7196  1.3540 -1.1194
  149MOL    H9747753   5.657   0.922   2.957  0.1013 -0.8237  0.2682
  149MOL    C9847754   5.566   0.754   3.064 -0.1471 -0.6844  0.1088
  149MOL    C9947755   5.436   0.686   3.107 -0.2624  0.5373  0.8388
  149MOL   C10047756   5.356   0.619   3.008 -0.6825 -0.4765 -0.5087
  149MOL   C10147757   5.229   0.568   3.047  0.3392  0.4451  0.9816
  149MOL  Cl10247758   5.117   0.528   2.924  0.1953  0.1581  0.4126
  149MOL   C10347759   5.198   0.554   3.181 -0.6622 -0.5328  0.7952
  149MOL   C10447760   5.278   0.616   3.282  0.0090  0.1742  0.5930
  149MOL   C10547761   5.390   0.692   3.240 -0.0933 -0.4765 -0.6099
  149MOL   C10647762   5.672   0.649   3.017 -0.0153 -0.6364  0.1878
  149MOL   H10747763   5.606   0.799   3.156 -2.9628  2.8042 -0.2429
  149MOL   H10847764   5.391   0.628   2.906  1.0951 -1.6247 -0.0162
  149MOL   H10947765   5.106   0.504   3.203 -1.4586  0.3509 -0.4785
  149MOL   H11047766   5.255   0.617   3.387 -1.0352 -2.5868  0.4458
  149MOL   H11147767   5.435   0.758   3.313 -0.8324  2.3866 -2.6910
  149MOL   H11247768   5.648   0.610   2.919 -0.6010  2.6469 -1.0348
  149MOL   H11347769   5.763   0.708   3.003 -0.6696  0.0003 -1.4496
  149MOL   C11447770   5.695   0.542   3.122 -0.1038  0.2704 -0.0946
  149MOL   C11547771   5.629   0.412   3.086  0.2192  0.3258 -0.1194
  149MOL   C11647772   5.518   0.367   3.158 -0.0788 -0.9697  0.6962
  149MOL   C11747773   5.438   0.254   3.112 -0.0164 -0.0782 -0.8610
  149MOL  Cl11847774   5.294   0.210   3.202  0.0003 -0.1038 -0.6109
  149MOL   C11947775   5.488   0.182   3.002 -0.4534  0.2191 -0.9556
  149MOL   C12047776   5.596   0.231   2.929 -0.7198  0.6269 -0.0895
  149MOL   C12147777   5.666   0.345   2.964  0.4369  0.2767 -1.3225
  149MOL   C12247778   5.847   0.526   3.145 -0.3763 -0.4045 -0.1610
  149MOL   H12347779   5.662   0.576   3.220  0.3437 -3.8252  1.5992
  149MOL   H12447780   5.488   0.408   3.253  1.3568  1.6379  0.0621
  149MOL   H12547781   5.442   0.094   2.959 -2.2882  2.7366 -4.3718
  149MOL   H12647782   5.630   0.189   2.835 -1.4537 -0.0778 -0.0442
  149MOL   H12747783   5.746   0.383   2.902  2.3835  1.2200  1.6263
  149MOL   H12847784   5.889   0.482   3.055  1.2450  0.8204 -0.0281
  149MOL   H12947785   5.906   0.617   3.160 -0.8909  0.1385 -1.3072
  149MOL   C13047786   5.881   0.428   3.256  0.3181  0.1096 -0.0796
  149MOL   C13147787   6.028   0.411   3.257  0.0551 -0.3883 -0.1219
  149MOL   C13247788   6.089   0.289   3.217 -0.2923 -0.1342 -0.6124
  149MOL   C13347789   6.229   0.276   3.217 -0.6980 -0.3853  0.1297
  149MOL  Cl13447790   6.280   0.131   3.150 -0.4592 -0.1973 -0.0574
  149MOL   C13547791   6.314   0.382   3.248  0.0742 -0.0368 -0.0814
  149MOL   C13647792   6.254   0.508   3.291  0.1718 -0.2277  0.5028
  149MOL   C13747793   6.116   0.515   3.300  0.5761  1.2169  0.1993
  149MOL   C13847794   5.819   0.467   3.389 -0.0637 -0.0270 -1.0958
  149MOL   H13947795   5.840   0.328   3.240 -1.4519  0.9138 -0.6860
  149MOL   H14047796   6.034   0.200   3.190  0.6245 -0.8083 -0.2888
  149MOL   H14147797   6.420   0.364   3.240  0.1190 -0.4602  1.3305
  149MOL   H14247798   6.306   0.602   3.304 -0.8041  0.5615 -1.0686
  149MOL   H14347799   6.074   0.610   3.329 -1.2030 -0.3417  3.0281
  149MOL   H14447800   5.811   0.575   3.395  1.6156  0.0150  0.7171
  149MOL   H14547801   5.712   0.446   3.386 -0.2570  0.4971  1.2460
  149MOL   C14647802   5.887   0.426   3.521 -0.1521  0.3561 -0.4124
  149MOL   C14747803   5.908   0.550   3.608  0.0122 -0.1700  0.3628
  149MOL   C14847804   6.040   0.597   3.628  0.2824 -0.5438 -0.6285
  149MOL   C14947805   6.064   0.706   3.716 -0.4419  1.1811 -0.3777
  149MOL  Cl15047806   6.223   0.763   3.751  0.0693 -0.0700  0.5509
  149MOL   C15147807   5.957   0.761   3.786 -0.4342 -0.0801 -0.3637
  149MOL   C15247808   5.821   0.717   3.768 -0.2719  0.3716 -0.9657
  149MOL   C15347809   5.798   0.613   3.673 -0.0486 -0.8069  0.4646
  149MOL   C15447810   5.801   0.330   3.607 -0.4226 -0.3337 -0.1163
  149MOL   H15547811   5.984   0.381   3.503  0.2507  0.2054  2.0996
  149MOL   H15647812   6.128   0.551   3.586  0.8110  0.9472 -1.1600
  149MOL   H15747813   5.968   0.847   3.850  0.8779  0.6639 -1.5702
  149MOL   H15847814   5.737   0.766   3.813 -0.5730 -0.0720 -1.0382
  149MOL   H15947815   5.699   0.574   3.651 -0.3911 -0.2555  0.9951
  149MOL   H16047816   5.846   0.324   3.707 -0.3842  0.1100 -0.1070
  149MOL   H16147817   5.699   0.367   3.617 -0.6792 -0.1111 -3.2978
  149MOL   C16247818   5.799   0.182   3.559  0.0331  0.0715 -0.3091
  149MOL   C16347819   5.822   0.086   3.683  0.2459 -0.7520 -0.5544
  149MOL   C16447820   5.920   8.426   3.696  0.3861  0.4281 -0.1339
  149MOL   C16547821   5.947   8.357   3.815  0.4277  0.2809  0.6481
  149MOL  Cl16647822   6.062   8.229   3.821 -0.2684  0.1459 -0.0024
  149MOL   C16747823   5.860   8.373   3.925 -0.0186 -0.4885 -0.0724
  149MOL   C16847824   5.762   0.036   3.917  0.3835  0.8640 -0.6067
  149MOL   C16947825   5.738   0.102   3.797 -0.1292 -0.4599  0.1420
  149MOL   C17047826   5.670   0.161   3.464 -0.2130 -0.2520 -0.9668
  149MOL   H17147827   5.887   0.172   3.496  1.2277  0.6578  1.2226
  149MOL   H17247828   5.990   8.420   3.614 -0.5567 -1.1562 -0.8285
  149MOL   H17347829   5.882   8.308   4.008 -0.1779 -0.3026  0.1141
  149MOL   H17447830   5.696   0.042   4.003  1.2735  2.3848 -0.0202
  149MOL   H17547831   5.659   0.175   3.784  0.6684  0.0395 -1.9294
  149MOL   H17647832   5.586   0.204   3.518  1.9601  0.3521  2.0712
  149MOL   H17747833   5.685   0.218   3.372  1.2490  1.8645  0.5289
  149MOL   C17847834   5.632   0.014   3.442 -0.0666  0.7024  0.5196
  149MOL   C17947835   5.560   8.393   3.565 -0.1865  0.7725 -0.5617
  149MOL   C18047836   5.609   8.274   3.627  0.2993  0.5599  0.0253
  149MOL   C18147837   5.549   8.225   3.741 -0.0131 -0.3961  0.8820
  149MOL  Cl18247838   5.615   8.080   3.821 -0.3977  0.2762  0.2108
  149MOL   C18347839   5.439   8.296   3.792  0.6885 -0.0544 -0.2728
  149MOL   C18447840   5.386   8.415   3.734  0.4989  0.0221 -0.0892
  149MOL   C18547841   5.448   0.024   3.619 -0.8452  0.2281  0.3479
  149MOL   C18647842   5.538   8.432   3.320 -0.0096  0.2860 -0.2135
  149MOL   H18747843   5.730   8.405   3.423  0.2655  1.1978  1.0578
  149MOL   H18847844   5.693   8.223   3.582 -0.2031 -0.0898 -0.1709
  149MOL   H18947845   5.393   8.273   3.886 -0.8206 -1.0268 -1.2252
  149MOL   H19047846   5.308   0.043   3.774  1.3555  0.8758  0.2693
  149MOL   H19147847   5.410   0.114   3.573 -0.4501  0.3193  0.2024
  149MOL   H19247848   5.452   0.058   3.345 -0.7992 -0.3399 -1.3705
  149MOL   H19347849   5.583   0.044   3.232 -1.9729  3.2906  0.3098
  149MOL   C19447850   5.504   8.281   3.291 -1.0930  0.3893 -0.0272
  149MOL   C19547851   5.394   8.281   3.179 -0.2407 -0.0611  0.1727
  149MOL   C19647852   5.260   8.312   3.221 -0.4296 -0.1216  0.0178
  149MOL   C19747853   5.153   8.333   3.131 -0.5739  0.0559 -0.4698
  149MOL  Cl19847854   4.991   8.376   3.184 -0.2385 -0.4265  0.2494
  149MOL   C19947855   5.183   8.308   2.997 -0.6378  0.4500  0.3521
  149MOL   C20047856   5.312   8.276   2.953  0.6551 -0.0276 -0.0888
  149MOL   C20147857   5.421   8.265   3.038  0.4610  0.0740 -0.7535
  149MOL   C20247858   5.619   8.179   3.271 -0.1803 -0.7340  0.8631
  149MOL   H20347859   5.450   8.245   3.378  0.4094 -1.0961  0.3246
  149MOL   H20447860   5.245   8.332   3.326  2.1842  1.8961  0.0699
  149MOL   H20547861   5.100   8.305   2.927 -0.5750  0.0353  0.2958
  149MOL   H20647862   5.328   8.260   2.848  0.1126 -0.5010 -0.1036
  149MOL   H20747863   5.519   8.239   3.002  0.8603 -2.1190  1.7224
  149MOL   H20847864   5.669   8.210   3.179  0.5028  0.5399  1.6576
  149MOL   H20947865   5.694   8.186   3.350 -1.0574 -0.6765  1.6870
  149MOL   C21047866   5.569   8.031   3.253 -0.2342 -0.4745  0.9917
  149MOL   C21147867   5.676   7.943   3.192 -0.4611  0.0830  1.0062
  149MOL   C21247868   5.663   7.893   3.058 -0.3103 -0.1147 -0.1230
  149MOL   C21347869   5.762   7.803   3.005  0.0196  0.3912  0.4720
  149MOL  Cl21447870   5.739   7.730   2.851  0.0489 -0.2664 -0.3423
  149MOL   C21547871   5.869   7.755   3.084 -0.2015  0.3037  0.2011
  149MOL   C21647872   5.877   7.808   3.211 -0.5100  0.1342  0.1188
  149MOL   C21747873   5.789   7.900   3.263  0.5239 -0.5577  0.0860
  149MOL   C21847874   5.513   7.973   3.389 -0.9120 -0.0882 -0.0927
  149MOL   H21947875   5.493   8.036   3.175  0.8479  1.4556  0.0429
  149MOL   H22047876   5.569   7.911   3.008 -0.5165 -0.4815  0.1287
  149MOL   H22147877   5.949   7.688   3.056  0.1948  0.5114  0.8379
  149MOL   H22247878   5.956   7.771   3.275  1.2918  3.3653 -0.1356
  149MOL   H22347879   5.813   7.931   3.364  0.9180 -1.7153  0.3592
  149MOL   H22447880   5.556   7.875   3.409  1.7350  1.3049  1.2999
  149MOL   H22547881   5.551   8.036   3.470 -0.2518  1.8988 -1.9136
  149MOL   C22647882   5.359   7.967   3.392  0.3271  0.2784  0.1410
  149MOL   C22747883   5.313   7.857   3.293  0.2493 -0.6641  0.1917
  149MOL   C22847884   5.334   7.717   3.313  0.7315  0.2630 -0.2723
  149MOL   C22947885   5.276   7.616   3.227 -0.4921  0.0797  0.3577
  149MOL  Cl23047886   5.272   7.447   3.269 -0.1999  0.0588 -0.1770
  149MOL   C23147887   5.220   7.658   3.103  0.6514  0.7164  0.0173
  149MOL   C23247888   5.206   7.799   3.076 -0.6688  0.7347  0.3044
  149MOL   C23347889   5.247   7.895   3.168 -0.6665 -0.3254  0.6519
  149MOL   C23447890   5.294   7.960   3.535 -0.3524  0.3812 -0.0300
  149MOL   H23547891   5.319   8.059   3.350 -1.7275  0.3508  2.1512
  149MOL   H23647892   5.390   7.671   3.393  1.6537 -0.9639 -1.6065
  149MOL   H23747893   5.188   7.585   3.030  1.3614  0.3427  0.0754
  149MOL   H23847894   5.167   7.828   2.979 -0.1904 -0.5542 -0.2825
  149MOL   H23947895   5.243   7.997   3.133  2.6382 -1.2004 -2.5614
  149MOL   H24047896   5.284   7.855   3.560 -2.6778  0.3605 -0.9366
  149MOL   H24147897   5.350   8.009   3.615  0.9713  0.6287 -1.0806
  149MOL   C24247898   5.148   8.015   3.542  0.7935  0.1001 -0.3413
  149MOL   C24347899   5.050   7.953   3.441 -0.3826  0.4504 -0.1186
  149MOL   C24447900   5.032   7.809   3.435 -0.1655 -1.1724  0.7222
  149MOL   C24547901   4.947   7.755   3.331 -0.1939 -0.0292 -0.8086
  149MOL  Cl24647902   4.924   7.590   3.333  0.4072  0.2530 -0.2803
  149MOL   C24747903   4.893   7.839   3.229  0.1286 -0.4773 -0.5879
  149MOL   C24847904   4.927   7.975   3.226  0.0503 -1.0857 -0.4819
  149MOL   C24947905   4.999   8.030   3.334 -0.2793  0.0803 -0.4260
  149MOL   C25047906   5.085   8.013   3.683  0.0429  0.2701  0.1494
  149MOL   H25147907   5.152   8.119   3.508 -1.9206 -0.2156 -1.7925
  149MOL   H25247908   5.066   7.736   3.507 -1.9246 -1.4358  1.3187
  149MOL   H25347909   4.841   7.801   3.143 -1.2893 -0.4765  0.2558
  149MOL   H25447910   4.896   8.031   3.138  2.1761 -1.1629 -1.3160
  149MOL   H25547911   5.017   8.136   3.323  0.4228  0.1575  1.2348
  149MOL   H25647912   5.037   7.917   3.702  0.6798  0.1069  0.9137
  149MOL   H25747913   5.163   8.027   3.757 -1.4485 -1.8622  2.2238
  149MOL   C25847914   4.969   8.116   3.697 -0.7286 -0.0595  0.3943
  149MOL   C25947915   4.886   8.075   3.816 -0.5219  0.3038 -0.6450
  149MOL   C26047916   4.942   8.058   3.948 -0.5050 -0.1271  0.7438
  149MOL   C26147917   4.862   8.003   4.053  0.1052  0.3843  0.0642
  149MOL  Cl26247918   4.915   7.973   4.209 -0.0077 -0.1614 -0.1581
  149MOL   C26347919   4.724   7.989   4.027 -0.1410  0.4007  0.4643
  149MOL   C26447920   4.671   8.006   3.892 -0.0139 -0.3552 -0.0614
  149MOL   C26547921   4.754   8.065   3.794  0.5051  0.1861 -0.7810
  149MOL   C26647922   5.033   8.249   3.724  0.2558  0.0248 -0.5862
  149MOL   H26747923   4.904   8.118   3.609  0.0594  2.0275 -0.1692
  149MOL   H26847924   5.046   8.077   3.970 -0.8165 -0.3705  2.4974
  149MOL   H26947925   4.653   7.956   4.100  0.0949 -2.6250 -0.6200
  149MOL   H27047926   4.568   7.990   3.867 -0.3014 -1.3731  1.6620
  149MOL   H27147927   4.699   8.088   3.703  1.0043  1.3648 -0.7966
  149MOL   H27247928   5.061   8.259   3.828  0.1957 -0.0551 -0.5625
  149MOL   H27347929   5.129   8.247   3.674  1.1286 -0.4194  1.0801
  149MOL   C27447930   4.941   8.378   3.692 -0.1926  0.5004  1.2433
  149MOL   C27547931   4.832   8.401   3.801 -0.0183  0.5956 -0.4836
  149MOL   C27647932   4.865   8.411   3.942 -0.7972 -0.4071 -0.0082
  149MOL   C27747933   4.762   8.400   4.040  0.0233 -0.0636 -0.1920
  149MOL  Cl27847934   4.812   8.385   4.204 -0.1227  0.4297  0.0712
  149MOL   C27947935   4.630   8.378   3.999 -0.4532 -0.0691 -0.2515
  149MOL   C28047936   4.595   8.391   3.864  0.6094 -0.0475  0.3340
  149MOL   C28147937   4.694   8.403   3.764  0.5888  0.2101  0.1416
  149MOL   C28247938   5.031   0.060   3.675  0.3048  0.2402  0.2012
  149MOL   H28347939   4.899   8.365   3.592  1.2860 -0.2267  0.7044
  149MOL   H28447940   4.968   8.423   3.974 -0.9628  1.6076 -0.2004
  149MOL   H28547941   4.557   8.362   4.077  0.1127 -1.1324  0.0761
  149MOL   H28647942   4.494   8.386   3.827  0.8266 -0.8671 -0.1653
  149MOL   H28747943   4.665   8.406   3.660 -2.5578  1.6443  0.9955
  149MOL   H28847944   5.094   0.077   3.762  0.1885 -0.3676  0.4036
  149MOL   H28947945   5.104   0.043   3.596 -0.7067  2.6572 -1.3133
  149MOL   C29047946   4.971   0.197   3.641  0.4051 -0.5152  0.4791
  149MOL   C29147947   5.054   0.310   3.694  1.0446  0.0236  0.2199
  149MOL   C29247948   5.174   0.353   3.629 -0.4820 -0.0679 -0.6107
  149MOL   C29347949   5.251   0.453   3.691 -0.2335 -0.8993  0.1367
  149MOL  Cl29447950   5.387   0.506   3.600 -0.2239  0.1651 -0.0265
  149MOL   C29547951   5.217   0.507   3.814 -0.2817  0.0727 -0.3103
  149MOL   C29647952   5.102   0.467   3.881  0.0895  0.0021  0.1610
  149MOL   C29747953   5.019   0.372   3.816  0.2194 -1.1374  0.0055
  149MOL   C29847954   4.933   0.216   3.494  0.1758  0.9897 -0.6280
  149MOL   H29947955   4.873   0.204   3.689 -0.0722  1.0615 -0.6682
  149MOL   H30047956   5.194   0.322   3.528 -1.5337 -0.3250 -0.7452
  149MOL   H30147957   5.282   0.585   3.851 -1.4098  0.2142  1.4208
  149MOL   H30247958   5.070   0.514   3.973  1.7344  0.5457  0.4757
  149MOL   H30347959   4.923   0.346   3.859  0.0212 -0.8081 -0.2420
  149MOL   H30447960   5.012   0.260   3.432  0.9247  1.0445  0.3478
  149MOL   H30547961   4.905   0.129   3.436 -0.8609  0.2957  0.8763
  149MOL   C30647962   4.798   0.296   3.476 -0.2652  0.4176 -0.1291
  149MOL   C30747963   4.814   0.434   3.544  0.5530  0.1263  1.1570
  149MOL   C30847964   4.903   0.530   3.498 -0.0401 -0.0245 -0.0485
  149MOL   C30947965   4.915   0.653   3.571  0.4654 -0.2580  0.7707
  149MOL  Cl31047966   5.033   0.772   3.522  0.2375  0.0492 -0.3429
  149MOL   C31147967   4.825   0.675   3.682  0.6820 -0.5783 -0.6334
  149MOL   C31247968   4.732   0.577   3.722 -0.1129 -0.2048  0.2195
  149MOL   C31347969   4.714   0.459   3.647 -0.4976 -0.2455 -0.2586
  149MOL   C31447970   4.759   0.299   3.325  0.4593  0.4942  0.0434
  149MOL   H31547971   4.730   0.231   3.531  2.8669 -2.0793  0.9091
  149MOL   H31647972   4.975   0.513   3.419 -1.0977 -0.7093 -0.8764
  149MOL   H31747973   4.846   0.765   3.738  1.0833 -2.3237  2.1169
  149MOL   H31847974   4.669   0.591   3.808 -1.9384  0.0006 -1.1296
  149MOL   H31947975   4.639   0.389   3.681  0.4939 -2.0616 -1.7196
  149MOL   H32047976   4.673   0.364   3.316  0.5866  0.6428 -0.0964
  149MOL   H32147977   4.839   0.331   3.258 -0.4203  1.1472 -0.6930
  149MOL   H32247978   4.727   0.198   3.300  1.0169  0.7843 -1.9259
  150MOL     C147979   7.968   2.475   4.766 -0.0775 -0.5259  0.3477
  150MOL     C247980   8.085   2.567   4.732  0.9074 -0.1244 -0.0768
  150MOL     C347981   8.131   2.592   4.603  0.6508  0.2602  0.3460
  150MOL     C447982   8.239   2.682   4.583 -0.1102  0.1685  0.7728
  150MOL    Cl547983   8.293   2.713   4.430 -0.3469 -0.2091 -0.1743
  150MOL     C647984   8.294   2.745   4.691 -0.5801  0.6234  0.2539
  150MOL     C747985   8.236   2.743   4.817 -0.4702  0.1451 -0.8520
  150MOL     C847986   8.140   2.641   4.841 -0.4353  0.3939  0.7098
  150MOL     C947987   7.997   2.337   4.724 -0.0711 -0.5147 -0.4510
  150MOL    H1047988   7.880   2.513   4.713  1.1328  0.2573 -1.1349
  150MOL    H1147989   8.082   2.544   4.519 -2.1550  1.5290  1.1924
  150MOL    H1247990   8.378   2.810   4.675 -0.4422 -0.1660 -2.4361
  150MOL    H1347991   8.274   2.802   4.899  2.4184 -0.0304 -2.0266
  150MOL    H1447992   8.084   2.629   4.933 -2.2984 -2.7358 -0.7739
  150MOL    H1547993   7.900   2.287   4.713  1.0975 -2.6395 -1.5494
  150MOL    H1647994   8.039   2.329   4.624 -0.6213 -1.7839 -0.5996
  150MOL    H1747995   7.950   2.490   4.873  1.1682  2.8376  0.1556
  150MOL    C1847996   8.095   2.259   4.812  0.5496 -0.0101 -0.1742
  150MOL    C1947997   8.053   2.255   4.960  0.0549 -0.0618  0.0553
  150MOL    C2047998   7.920   2.206   4.992 -0.5945 -0.0573 -0.2579
  150MOL    C2147999   7.879   2.201   5.129 -0.1177 -0.3903  0.7087
  150MOL   Cl2248000   7.724   2.148   5.173 -0.5101 -0.2691 -0.1048
  150MOL    C2348001   7.970   2.234   5.236  0.3372  0.3228  0.2098
  150MOL    C2448002   8.103   2.264   5.199 -0.3963 -0.3077  0.4208
  150MOL    C2548003   8.138   2.289   5.067  0.2802 -0.2060  0.4494
  150MOL    C2648004   8.106   2.116   4.764  0.2097  1.1262 -0.2370
  150MOL    H2748005   8.193   2.307   4.812  1.9479 -2.7689 -1.3516
  150MOL    H2848006   7.843   2.184   4.920 -1.3235 -2.2817  1.1676
  150MOL    H2948007   7.949   2.232   5.342  0.7848  1.1162  0.3235
  150MOL    H3048008   8.176   2.296   5.272  1.6843 -3.3737 -0.2198
  150MOL    H3148009   8.238   2.329   5.055 -0.5502  1.3882 -1.5707
  150MOL    H3248010   8.021   2.060   4.802  1.8971 -0.9604  0.6406
  150MOL    H3348011   8.094   2.092   4.659  1.8598 -0.0324 -0.1874
  150MOL    C3448012   8.236   2.037   4.802 -0.5636 -0.1330 -0.5973
  150MOL    C3548013   8.239   2.003   4.954  0.6443 -0.2774 -0.1203
  150MOL    C3648014   8.344   2.040   5.041  0.5401  0.3564  0.4932
  150MOL    C3748015   8.334   1.993   5.176  0.5964  0.1513  0.2042
  150MOL   Cl3848016   0.014   2.055   5.293 -0.0616 -0.2059  0.0962
  150MOL    C3948017   8.229   1.912   5.217  0.4154  0.5354 -0.7154
  150MOL    C4048018   8.136   1.871   5.128  0.3631  0.3389  0.1576
  150MOL    C4148019   8.138   1.909   4.994  0.4916  0.2427  0.2446
  150MOL    C4248020   8.264   1.916   4.701  0.0318 -0.1409  0.2532
  150MOL    H4348021   8.323   2.101   4.786  1.1591 -2.1788  0.2285
  150MOL    H4448022   8.430   2.096   5.006  0.1135  1.0871  0.5891
  150MOL    H4548023   8.222   1.883   5.320  0.5216  0.0137 -0.8569
  150MOL    H4648024   8.052   1.813   5.165 -0.3788  1.3238  0.0239
  150MOL    H4748025   8.061   1.870   4.930 -0.2800  0.4445  1.0314
  150MOL    H4848026   8.171   1.862   4.682  0.6707 -0.6397 -1.5249
  150MOL    H4948027   8.285   1.964   4.606  1.8509  0.0207  0.7199
  150MOL    C5048028   8.360   1.805   4.738  0.6119 -0.4658 -0.0461
  150MOL    C5148029   8.370   1.703   4.627  0.6061 -0.3656  0.9564
  150MOL    C5248030   8.319   1.573   4.651 -0.3118  0.0402 -0.1202
  150MOL    C5348031   8.323   1.481   4.542  0.8602  0.3674 -0.2425
  150MOL   Cl5448032   8.246   1.323   4.579 -0.2744 -0.2104  0.5882
  150MOL    C5548033   8.366   1.514   4.410 -0.3597 -0.2364  0.4648
  150MOL    C5648034   8.419   1.643   4.396  0.6225 -0.1609  0.1734
  150MOL    C5748035   8.419   1.734   4.504 -0.3097  0.4543  0.1666
  150MOL    C5848036   0.063   1.856   4.781  0.0231  0.1068 -0.3956
  150MOL    H5948037   8.323   1.762   4.831 -0.2774  1.1050  0.3382
  150MOL    H6048038   8.285   1.544   4.749 -3.4211 -0.9294 -1.4076
  150MOL    H6148039   8.364   1.449   4.324 -0.0663  0.1804  0.1414
  150MOL    H6248040   0.023   1.663   4.297  1.8083  0.4151  0.7579
  150MOL    H6348041   0.021   1.833   4.481  2.3899 -0.4560  0.4384
  150MOL    H6448042   0.120   1.895   4.696  3.2092 -0.6964  1.2769
  150MOL    H6548043   0.055   1.951   4.834 -0.0996 -0.0899 -0.0614
  150MOL    C6648044   0.153   1.747   4.853 -0.0267 -0.4262 -0.2533
  150MOL    C6748045   0.300   1.802   4.873 -0.9276  0.1002 -0.7269
  150MOL    C6848046   0.316   1.933   4.927 -0.3439  0.4717  0.2770
  150MOL    C6948047   0.441   2.001   4.914  1.2906  0.5607 -0.1537
  150MOL   Cl7048048   0.448   2.166   4.968  0.1090 -0.4694 -0.0905
  150MOL    C7148049   0.553   1.926   4.864 -0.4425  0.5885  0.0631
  150MOL    C7248050   0.536   1.795   4.822  0.4911 -0.0445 -0.5838
  150MOL    C7348051   0.411   1.731   4.823 -0.3010  0.0194 -0.0770
  150MOL    C7448052   0.082   1.709   4.995  0.4292  0.2220 -0.8081
  150MOL    H7548053   0.156   1.663   4.784 -3.3832 -2.6400  2.0991
  150MOL    H7648054   0.228   1.985   4.963  0.0221  0.3668  1.3560
  150MOL    H7748055   0.651   1.968   4.847  0.1554 -1.6514 -2.4107
  150MOL    H7848056   0.621   1.739   4.787  1.5480  0.2252  1.4931
  150MOL    H7948057   0.405   1.631   4.782  1.6707  0.3298 -1.1713
  150MOL    H8048058   0.029   1.793   5.042  0.2824  0.1198 -0.7897
  150MOL    H8148059   8.428   1.650   4.972  0.3142  0.0632  0.0362
  150MOL    C8248060   0.180   1.629   5.090  0.1897 -0.3134 -0.1622
  150MOL    C8348061   0.120   1.632   5.230  0.1210  0.4461  0.1244
  150MOL    C8448062   0.018   1.547   5.264 -0.2601  0.0200 -0.2591
  150MOL    C8548063   8.392   1.566   5.393  0.3460 -0.3369  0.1627
  150MOL   Cl8648064   8.263   1.470   5.439 -0.4673 -0.0827  0.1166
  150MOL    C8748065   0.006   1.664   5.483 -0.4083  0.7630  0.2325
  150MOL    C8848066   0.117   1.738   5.441 -0.4281 -0.1582  0.0334
  150MOL    C8948067   0.172   1.723   5.316  0.2644 -0.1780 -0.2178
  150MOL    C9048068   0.215   1.489   5.030 -0.8445  0.1787 -0.3535
  150MOL    H9148069   0.272   1.687   5.096  1.3306 -2.2699  2.0789
  150MOL    H9248070   8.416   1.466   5.203  0.6574 -0.4810 -0.1640
  150MOL    H9348071   8.393   1.673   5.579 -0.8672  0.3840  0.0392
  150MOL    H9448072   0.164   1.811   5.506  0.5379  0.5227 -1.4066
  150MOL    H9548073   0.259   1.782   5.293 -0.1673  0.8304  0.6888
  150MOL    H9648074   0.123   1.448   4.990  0.0596 -0.7697 -1.4898
  150MOL    H9748075   0.279   1.505   4.943  0.9297 -1.2461  0.6616
  150MOL    C9848076   0.288   1.384   5.124 -0.3813  1.0114  0.2990
  150MOL    C9948077   0.323   1.250   5.054 -0.2198 -1.0741  0.4711
  150MOL   C10048078   0.378   1.248   4.919  1.2103  0.6349 -0.2871
  150MOL   C10148079   0.411   1.130   4.854 -0.3256 -0.7703  0.2684
  150MOL  Cl10248080   0.496   1.144   4.704  0.2201  0.0941 -0.0449
  150MOL   C10348081   0.375   1.007   4.910  0.1563  0.3770 -0.1576
  150MOL   C10448082   0.319   1.003   5.039 -0.0890 -0.0332 -0.1608
  150MOL   C10548083   0.292   1.123   5.111 -0.5093  0.5511  0.5162
  150MOL   C10648084   0.427   1.444   5.169  0.0442  0.4604  0.2034
  150MOL   H10748085   0.226   1.350   5.207  1.7446  2.6028  2.5899
  150MOL   H10848086   0.395   1.345   4.874  0.1753  0.7106 -0.5257
  150MOL   H10948087   0.405   0.922   4.851 -0.3359  0.1724 -0.1163
  150MOL   H11048088   0.301   0.909   5.089  0.5510 -0.7701 -1.2807
  150MOL   H11148089   0.257   1.116   5.213 -0.2555 -0.5402  0.5380
  150MOL   H11248090   0.510   1.378   5.143 -0.1756 -0.1467  1.0114
  150MOL   H11348091   0.452   1.526   5.102 -0.3944  1.0469  0.7420
  150MOL   C11448092   0.444   1.480   5.320 -0.2382  0.6533  0.1513
  150MOL   C11548093   0.397   1.363   5.407  0.6600  0.4048 -0.2885
  150MOL   C11648094   0.289   1.386   5.500 -0.1198  0.1410 -0.1888
  150MOL   C11748095   0.252   1.281   5.588  0.9430 -0.3161  0.5335
  150MOL  Cl11848096   0.126   1.309   5.698 -0.4045  0.3599 -0.7107
  150MOL   C11948097   0.319   1.155   5.586 -0.1791 -0.8315  0.5607
  150MOL   C12048098   0.414   1.129   5.486  0.8461 -0.2383  0.4318
  150MOL   C12148099   0.457   1.231   5.397  0.2777  0.3205  0.8870
  150MOL   C12248100   0.596   1.495   5.351 -0.0633  0.0543  0.4590
  150MOL   H12348101   0.378   1.564   5.337  0.1258  0.9917 -0.1014
  150MOL   H12448102   0.248   1.484   5.519 -1.8606 -0.3941 -1.0636
  150MOL   H12548103   0.290   1.075   5.652  1.3799 -0.1984  2.0538
  150MOL   H12648104   0.446   1.027   5.475 -1.4194 -0.9043 -0.2782
  150MOL   H12748105   0.537   1.217   5.325 -0.3184  1.9164 -0.1046
  150MOL   H12848106   0.629   1.462   5.450 -0.2165  2.4111  1.3194
  150MOL   H12948107   0.645   1.418   5.291  2.0935  1.8079 -0.1239
  150MOL   C13048108   0.659   1.629   5.308 -0.1027  0.5175  0.3277
  150MOL   C13148109   0.579   1.747   5.348  0.9450 -0.2675  0.1772
  150MOL   C13248110   0.535   1.763   5.478 -0.2208 -0.5453  0.1728
  150MOL   C13348111   0.448   1.870   5.505  0.5089 -0.6055  0.3343
  150MOL  Cl13448112   0.379   1.892   5.659 -0.2863  0.0742  0.1404
  150MOL   C13548113   0.405   1.963   5.406  0.0166  0.6370  0.2690
  150MOL   C13648114   0.454   1.938   5.273  0.8622  0.0383  0.1629
  150MOL   C13748115   0.538   1.832   5.238 -0.0031  0.4800  0.1024
  150MOL   C13848116   0.807   1.636   5.366  0.4475  0.0026  0.3777
  150MOL   H13948117   0.665   1.624   5.199 -1.7976 -1.1412  0.2915
  150MOL   H14048118   0.571   1.700   5.558 -0.2460  2.7297  2.8807
  150MOL   H14148119   0.334   2.040   5.429  0.1923  0.4513  1.4445
  150MOL   H14248120   0.422   2.006   5.195  2.3340  1.5621  0.8389
  150MOL   H14348121   0.572   1.825   5.136 -2.7904  0.9613 -0.8733
  150MOL   H14448122   0.812   1.641   5.475  2.5089 -0.0648  0.3071
  150MOL   H14548123   0.849   1.545   5.323  0.9010  0.1213  0.5607
  150MOL   C14648124   0.893   1.749   5.305  0.4762 -0.3199  0.3521
  150MOL   C14748125   1.028   1.763   5.378 -0.1504  0.6830  0.5384
  150MOL   C14848126   1.113   1.651   5.392 -0.1779 -0.6450  0.3356
  150MOL   C14948127   1.237   1.669   5.464  0.2563  0.5780 -0.2052
  150MOL  Cl15048128   1.337   1.532   5.464 -0.2086 -0.3990 -0.0290
  150MOL   C15148129   1.273   1.791   5.530  0.4244 -0.0431  0.3414
  150MOL   C15248130   1.184   1.896   5.514 -0.0451 -0.2401 -0.3240
  150MOL   C15348131   1.063   1.885   5.437 -0.2354  0.3126 -0.6184
  150MOL   C15448132   0.912   1.730   5.155 -0.2667  0.5069  0.0761
  150MOL   H15548133   0.841   1.843   5.318  3.2277  1.0695  1.6624
  150MOL   H15648134   1.092   1.558   5.341  1.0606 -0.9578  0.3799
  150MOL   H15748135   1.361   1.805   5.591  0.1200  2.8647  0.2053
  150MOL   H15848136   1.213   1.994   5.548 -2.1901  0.6127 -0.8734
  150MOL   H15948137   1.000   1.971   5.425 -1.4708 -0.6775 -1.3162
  150MOL   H16048138   0.948   1.629   5.137 -0.7836  0.0548  1.5263
  150MOL   H16148139   0.819   1.732   5.097 -0.9028 -1.0637  1.0275
  150MOL   C16248140   1.016   1.824   5.086 -0.7897  0.2777  0.4338
  150MOL   C16348141   1.058   1.769   4.949  0.8640 -0.6514 -0.2715
  150MOL   C16448142   0.959   1.770   4.849 -0.3561  0.4492 -0.0674
  150MOL   C16548143   0.976   1.697   4.730  0.3969  0.3139 -0.4669
  150MOL  Cl16648144   0.847   1.690   4.626 -0.1487 -0.0001 -0.3720
  150MOL   C16748145   1.104   1.645   4.697 -0.6071 -0.0292 -0.1081
  150MOL   C16848146   1.204   1.657   4.796  0.8607 -0.9860  0.5299
  150MOL   C16948147   1.184   1.708   4.926  0.4335  0.3417  0.6005
  150MOL   C17048148   0.961   1.965   5.089 -0.3364  0.3503 -0.2630
  150MOL   H17148149   1.105   1.820   5.149 -0.3258  0.2661 -0.2186
  150MOL   H17248150   0.858   1.804   4.862 -1.1485 -1.7147 -0.4447
  150MOL   H17348151   1.134   1.593   4.607 -0.3845 -0.9231  0.4767
  150MOL   H17448152   1.308   1.635   4.773  0.8374 -0.3717 -0.1998
  150MOL   H17548153   1.264   1.720   4.998  0.3775  0.4864  0.6398
  150MOL   H17648154   0.854   1.960   5.068 -0.4778 -0.0564  0.5489
  150MOL   H17748155   0.969   1.992   5.194 -1.7185  1.2631 -0.3829
  150MOL   C17848156   1.037   2.063   4.992  0.5564 -0.7087  0.0155
  150MOL   C17948157   0.954   2.189   4.974 -0.4925 -1.0236 -0.0900
  150MOL   C18048158   0.943   2.284   5.079 -0.2115  0.3042 -0.1011
  150MOL   C18148159   0.852   2.391   5.069  0.9701  0.0632 -0.7813
  150MOL  Cl18248160   0.832   2.515   5.186  0.1850  0.1212  0.0775
  150MOL   C18348161   0.770   2.400   4.952  0.3224  0.1513  0.2218
  150MOL   C18448162   0.794   2.319   4.845 -0.2166  0.6336  0.6758
  150MOL   C18548163   0.885   2.214   4.850 -0.6778 -0.1438 -0.7849
  150MOL   C18648164   1.179   2.094   5.050  0.4399 -0.0801  0.3329
  150MOL   H18748165   1.047   2.019   4.892 -1.9935  1.5107 -1.2831
  150MOL   H18848166   1.006   2.282   5.167 -0.6417 -0.2655  0.1999
  150MOL   H18948167   0.698   2.480   4.939 -0.9245 -0.8964  0.6832
  150MOL   H19048168   0.736   2.331   4.755 -0.2708 -2.3217  0.2796
  150MOL   H19148169   0.894   2.156   4.759  0.1017  1.3284 -1.6513
  150MOL   H19248170   1.175   2.157   5.139 -0.0531 -2.3595  1.9690
  150MOL   H19348171   1.229   2.005   5.088  1.0735 -0.7705 -2.0531
  150MOL   C19448172   1.278   2.143   4.933 -0.6147  0.4821  0.1403
  150MOL   C19548173   1.377   2.244   4.992 -0.1669  0.2541 -0.7135
  150MOL   C19648174   1.476   2.209   5.088  0.1470  0.1549 -0.1785
  150MOL   C19748175   1.570   2.305   5.131 -0.8389  0.1888 -0.4583
  150MOL  Cl19848176   1.702   2.246   5.226 -0.0578 -0.0014  0.0636
  150MOL   C19948177   1.555   2.443   5.095 -0.5863 -0.3038  0.2977
  150MOL   C20048178   1.446   2.481   5.010  0.8107  0.2178  0.3844
  150MOL   C20148179   1.365   2.381   4.958  0.2001  1.0120  0.5381
  150MOL   C20248180   1.351   2.025   4.858  0.2373  0.7133 -0.3623
  150MOL   H20348181   1.227   2.207   4.861  1.0197  2.0390  0.3219
  150MOL   H20448182   1.476   2.108   5.129 -1.1593 -0.0064 -0.5555
  150MOL   H20548183   1.624   2.519   5.130 -0.7020 -0.8707  1.7978
  150MOL   H20648184   1.429   2.583   4.979 -0.1330 -0.2519 -0.6476
  150MOL   H20748185   1.283   2.416   4.896 -1.9538 -1.0163  2.1408
  150MOL   H20848186   1.416   1.973   4.929 -0.4765  0.6760  0.2662
  150MOL   H20948187   1.276   1.960   4.814  1.9000 -1.7216  0.2613
  150MOL   C21048188   1.446   2.065   4.746  0.4688 -0.0365 -0.4788
  150MOL   C21148189   1.537   1.951   4.722 -0.1513  0.4906  0.4973
  150MOL   C21248190   1.499   1.829   4.659 -0.1297  0.3303 -0.1245
  150MOL   C21348191   1.593   1.729   4.647 -0.2585 -0.6144  0.1058
  150MOL  Cl21448192   1.539   1.574   4.598  0.1816 -0.3592 -0.7891
  150MOL   C21548193   1.731   1.747   4.686  0.2970 -0.6969  0.4702
  150MOL   C21648194   1.767   1.869   4.733  0.4703  0.8468  0.2239
  150MOL   C21748195   1.673   1.971   4.751 -0.0328  0.0851  0.0006
  150MOL   C21848196   1.362   2.110   4.619  0.3503  0.2848  0.1338
  150MOL   H21948197   1.507   2.148   4.783 -0.7749 -0.3892  2.5096
  150MOL   H22048198   1.401   1.817   4.615  0.7780  0.4849 -2.2067
  150MOL   H22148199   1.808   1.671   4.674  1.4882  0.2568  1.8153
  150MOL   H22248200   1.864   1.896   4.772 -0.2686  2.8087  0.7508
  150MOL   H22348201   1.708   2.061   4.799  0.7973 -0.8018  1.0642
  150MOL   H22448202   1.339   2.019   4.564 -0.6310  1.2792 -1.1032
  150MOL   H22548203   1.271   2.159   4.652  0.8964  0.2283  1.8084
  150MOL   C22648204   1.444   2.204   4.530 -0.1688 -0.0222  0.4410
  150MOL   C22748205   1.400   2.205   4.383 -0.2305  0.4100  0.5969
  150MOL   C22848206   1.282   2.265   4.332  0.1372 -0.8732 -0.2962
  150MOL   C22948207   1.235   2.257   4.202  0.2428 -0.1376  0.2912
  150MOL  Cl23048208   1.093   2.342   4.151  0.0371 -0.2122 -0.4085
  150MOL   C23148209   1.309   2.177   4.115 -0.2091 -0.7183 -0.5608
  150MOL   C23248210   1.430   2.113   4.159  0.5526  0.2131 -0.5782
  150MOL   C23348211   1.478   2.134   4.286 -0.6320  1.0381  0.1861
  150MOL   C23448212   1.434   2.347   4.583 -0.3275  0.3128  0.4886
  150MOL   H23548213   1.546   2.166   4.536  0.1617  0.7747 -0.0944
  150MOL   H23648214   1.220   2.331   4.391  1.0205 -0.2691 -0.0448
  150MOL   H23748215   1.281   2.164   4.012  3.4221 -0.5830 -1.6289
  150MOL   H23848216   1.481   2.050   4.088  1.6611  0.6334 -0.1703
  150MOL   H23948217   1.577   2.097   4.310 -1.4892 -1.4577  0.0710
  150MOL   H24048218   1.326   2.364   4.584 -0.5982 -1.2159 -1.3812
  150MOL   H24148219   1.477   2.349   4.683 -0.3237 -1.4945  0.5439
  150MOL   C24248220   1.497   2.453   4.491  0.4009  0.2698  0.6011
  150MOL   C24348221   1.423   2.585   4.519  0.1622  0.6113 -0.3198
  150MOL   C24448222   1.444   2.650   4.641 -0.4374 -0.4991 -0.4480
  150MOL   C24548223   1.384   2.774   4.666 -0.6580 -0.5783 -0.6846
  150MOL  Cl24648224   1.403   2.850   4.821 -0.1638 -0.0528  0.0413
  150MOL   C24748225   1.290   2.836   4.576  0.7564  0.5876  0.3564
  150MOL   C24848226   1.258   2.765   4.458 -0.0034  0.2263  0.0318
  150MOL   C24948227   1.323   2.642   4.431 -0.2475  0.4647  0.5763
  150MOL   C25048228   1.652   2.456   4.506 -0.9297  0.2228 -0.0809
  150MOL   H25148229   1.466   2.446   4.387  2.3100  1.4476 -0.0874
  150MOL   H25248230   1.492   2.597   4.722 -0.3641 -0.5693 -0.5378
  150MOL   H25348231   1.234   2.922   4.609 -5.8729 -4.1579  2.5527
  150MOL   H25448232   1.186   2.821   4.401  2.6912  3.0491 -0.7266
  150MOL   H25548233   1.298   2.592   4.339  0.0788  3.8180 -1.4306
  150MOL   H25648234   1.680   2.502   4.600  0.5385  1.9380 -1.3224
  150MOL   H25748235   1.691   2.355   4.520  0.6327  0.7961 -0.1980
  150MOL   C25848236   1.720   2.519   4.382  0.6178  0.8129  0.2627
  150MOL   C25948237   1.647   2.638   4.317 -0.1109  0.5172 -0.6310
  150MOL   C26048238   1.648   2.762   4.381 -0.3221  0.3685 -0.4530
  150MOL   C26148239   1.591   2.870   4.316  0.3204  0.2153 -0.5974
  150MOL  Cl26248240   1.576   3.016   4.405 -0.2349  0.1665 -0.3756
  150MOL   C26348241   1.524   2.856   4.196 -0.2747 -0.3126 -0.5818
  150MOL   C26448242   1.519   2.730   4.139  0.4598  1.1282 -0.7580
  150MOL   C26548243   1.577   2.615   4.193  0.3396 -0.0139  0.5264
  150MOL   C26648244   1.866   2.544   4.422 -0.1670  0.1645  0.3140
  150MOL   H26748245   1.727   2.440   4.308 -1.3662 -0.2400  1.1480
  150MOL   H26848246   1.703   2.781   4.472 -0.3522  1.5238 -0.6631
  150MOL   H26948247   1.462   2.931   4.150  1.4385  1.8016  0.4330
  150MOL   H27048248   1.465   2.718   4.046  2.1485 -1.1336 -1.4978
  150MOL   H27148249   1.570   2.518   4.147 -1.4264 -0.7482  2.2958
  150MOL   H27248250   1.916   2.599   4.342  0.8643  1.5065  1.8721
  150MOL   H27348251   1.870   2.607   4.510  0.0689  1.0099 -0.2971
  150MOL   C27448252   1.965   2.425   4.462  0.2064 -0.1837 -0.1907
  150MOL   C27548253   1.943   2.305   4.369 -0.1813  0.8247 -0.6632
  150MOL   C27648254   1.900   2.178   4.423  0.6435  0.3302 -0.9868
  150MOL   C27748255   1.877   2.071   4.336  0.0029 -0.2250  0.1627
  150MOL  Cl27848256   1.816   1.922   4.389  0.5213 -0.0978 -0.2204
  150MOL   C27948257   1.898   2.087   4.192 -0.1211  0.6337  0.6449
  150MOL   C28048258   1.958   2.207   4.144 -0.7530 -0.3097  0.3566
  150MOL   C28148259   1.978   2.312   4.233  0.1275  0.3769  0.9798
  150MOL   C28248260   2.107   2.472   4.473 -0.2013 -0.0457 -0.2717
  150MOL   H28348261   1.936   2.385   4.559 -0.2388 -0.2209 -0.3360
  150MOL   H28448262   1.892   2.158   4.529 -2.4488 -2.5732 -1.6704
  150MOL   H28548263   1.880   2.012   4.117 -0.2534  4.0619 -2.9594
  150MOL   H28648264   1.968   2.217   4.037 -3.2996 -1.0665  0.0185
  150MOL   H28748265   2.030   2.403   4.206  1.7284 -0.5334  0.9204
  150MOL   H28848266   2.139   2.509   4.375  0.8754  0.3942  0.2339
  150MOL   H28948267   2.115   2.556   4.541  0.8512  0.3937 -0.9161
  150MOL   C29048268   2.212   2.362   4.515  0.2554  0.4255 -0.3767
  150MOL   C29148269   2.344   2.387   4.440 -0.1464 -0.8410 -0.2745
  150MOL   C29248270   2.365   2.325   4.317 -0.0875  0.6481  0.1182
  150MOL   C29348271   2.496   2.331   4.257  0.4470 -0.2354  0.0921
  150MOL  Cl29448272   2.526   2.251   4.108 -0.0163  0.0207  0.0524
  150MOL   C29548273   2.591   2.416   4.314 -0.5371 -0.8530 -0.0577
  150MOL   C29648274   2.567   2.480   4.437  0.0239  0.0016 -0.6284
  150MOL   C29748275   2.442   2.468   4.498 -0.9644  0.3857  0.5836
  150MOL   C29848276   2.209   2.347   4.670 -0.4989  0.2614 -0.7531
  150MOL   H29948277   2.176   2.270   4.467 -0.3867  0.5360 -0.1164
  150MOL   H30048278   2.294   2.251   4.280 -0.7412  0.2969  2.0177
  150MOL   H30148279   2.677   2.433   4.251  0.9225  0.1639  2.1327
  150MOL   H30248280   2.632   2.553   4.483 -0.3644  1.2308 -1.9859
  150MOL   H30348281   2.417   2.526   4.586 -0.6209  0.1495  0.8353
  150MOL   H30448282   2.221   2.449   4.706 -1.1414 -0.0202  0.2857
  150MOL   H30548283   2.109   2.316   4.701 -0.1825  0.0431  0.0415
  150MOL   C30648284   2.316   2.247   4.718  0.5295 -0.3148 -0.2223
  150MOL   C30748285   2.315   2.259   4.867  0.3595  0.3771 -0.1772
  150MOL   C30848286   2.214   2.198   4.949  0.3064  0.4992 -0.0274
  150MOL   C30948287   2.212   2.222   5.087 -0.2226  0.9619 -1.0009
  150MOL  Cl31048288   2.080   2.177   5.185 -0.5246  0.1937  0.0662
  150MOL   C31148289   2.324   2.276   5.154  0.8845 -0.2885  0.0482
  150MOL   C31248290   2.419   2.336   5.072 -0.2046 -0.0620  0.0976
  150MOL   C31348291   2.423   2.330   4.935 -0.1755 -0.0147  0.2996
  150MOL   C31448292   2.274   2.107   4.666 -0.1595 -0.1301 -0.1812
  150MOL   H31548293   2.414   2.272   4.675 -0.3020  1.0059 -1.4132
  150MOL   H31648294   2.138   2.132   4.910  1.9930 -2.0436  0.8777
  150MOL   H31748295   2.325   2.267   5.262 -1.0709 -1.6896 -0.0149
  150MOL   H31848296   2.500   2.389   5.120 -1.1009  0.3093  1.2425
  150MOL   H31948297   2.504   2.369   4.876  0.4939 -1.7448  0.0493
  150MOL   H32048298   2.289   2.097   4.559  3.6438 -0.7264  0.3194
  150MOL   H32148299   2.341   2.038   4.718  0.5162 -0.1369 -1.0512
  150MOL   H32248300   2.175   2.074   4.698 -0.7237  1.3879 -0.2963
  151MOL     C148301   5.724   1.313   1.798  0.6984 -0.3838 -0.0750
  151MOL     C248302   5.848   1.337   1.878 -1.0311 -0.1982 -0.1945
  151MOL     C348303   5.961   1.402   1.826  0.1496 -0.5502 -0.1974
  151MOL     C448304   6.066   1.440   1.910  0.4511  0.8291 -0.0792
  151MOL    Cl548305   6.192   1.532   1.842  0.4120  0.0001 -0.1069
  151MOL     C648306   6.065   1.403   2.046 -0.5714 -0.2549  0.9327
  151MOL     C748307   5.969   1.311   2.088  0.4182 -0.1782  0.8016
  151MOL     C848308   5.850   1.296   2.010 -0.1078  0.5805 -0.2670
  151MOL     C948309   5.682   1.170   1.776 -0.6972 -0.5214  0.6456
  151MOL    H1048310   5.708   1.376   1.710  3.0145  0.7124  0.2317
  151MOL    H1148311   5.955   1.446   1.727  0.8018  2.1663  0.9098
  151MOL    H1248312   6.156   1.425   2.099  0.2961 -0.6157 -0.3593
  151MOL    H1348313   5.982   1.263   2.184  1.5155 -0.0958  0.6982
  151MOL    H1448314   5.763   1.239   2.040 -0.3831  0.3876 -1.3973
  151MOL    H1548315   5.670   1.117   1.871 -1.8084 -1.1943  0.1344
  151MOL    H1648316   5.582   1.183   1.734 -0.2221 -0.3822 -0.4558
  151MOL    H1748317   5.645   1.352   1.862 -0.4830 -3.4404  0.4054
  151MOL    C1848318   5.766   1.084   1.678  0.6313  0.3392 -0.5126
  151MOL    C1948319   5.735   0.936   1.680  0.2445  1.0891 -0.2641
  151MOL    C2048320   5.633   0.867   1.609 -0.0279  0.1016 -1.3651
  151MOL    C2148321   5.625   0.727   1.628 -0.1675 -0.6117  0.3380
  151MOL   Cl2248322   5.497   0.642   1.557 -0.0433 -0.1289  0.1163
  151MOL    C2348323   5.711   0.659   1.711 -1.0287 -0.0679 -0.9606
  151MOL    C2448324   5.819   0.723   1.782 -0.1279  0.6936  0.4066
  151MOL    C2548325   5.821   0.860   1.761  0.5622  0.1890 -0.1439
  151MOL    C2648326   5.767   1.146   1.531  0.2363 -0.1802 -0.4659
  151MOL    H2748327   5.869   1.097   1.710  1.8707  0.9689 -4.5206
  151MOL    H2848328   5.554   0.917   1.555  0.0082 -0.9018 -2.3627
  151MOL    H2948329   5.703   0.553   1.731 -3.2679 -0.0044 -1.3319
  151MOL    H3048330   5.894   0.661   1.829  0.7214 -0.6321 -2.5820
  151MOL    H3148331   5.898   0.917   1.811  0.8139 -0.7954  0.6101
  151MOL    H3248332   5.677   1.109   1.483 -0.2995 -0.2121  0.5487
  151MOL    H3348333   5.756   1.254   1.537 -1.5200 -0.3547 -0.2790
  151MOL    C3448334   5.892   1.107   1.442 -0.1433  0.4991  0.6435
  151MOL    C3548335   5.870   1.129   1.296  0.3889 -1.1290  0.5196
  151MOL    C3648336   5.827   1.255   1.242 -0.7164 -0.2390 -0.6448
  151MOL    C3748337   5.808   1.274   1.103  0.1766 -0.1319 -0.2688
  151MOL   Cl3848338   5.740   1.421   1.046  0.0850 -0.4754 -0.1834
  151MOL    C3948339   5.847   1.174   1.013  0.4918 -0.1209 -0.3637
  151MOL    C4048340   5.907   1.055   1.060 -0.2537  0.0379  0.0243
  151MOL    C4148341   5.908   1.033   1.203  0.0653  0.2413  0.4512
  151MOL    C4248342   6.026   1.167   1.496 -0.0726  0.7055 -0.7600
  151MOL    H4348343   5.888   0.998   1.451  0.3391  0.4219  0.0031
  151MOL    H4448344   5.788   1.335   1.302  0.0374  0.6626 -1.3433
  151MOL    H4548345   5.830   1.186   0.907  1.1709 -2.6739 -0.8061
  151MOL    H4648346   5.927   0.974   0.992 -1.2655  0.6765 -1.0521
  151MOL    H4748347   5.962   0.950   1.244 -0.5808 -0.0845  0.6460
  151MOL    H4848348   6.042   1.254   1.432 -1.8658  1.4833 -0.1834
  151MOL    H4948349   6.006   1.205   1.596 -0.9908 -1.7683  0.0309
  151MOL    C5048350   6.153   1.077   1.495  0.0872  0.3146 -0.5777
  151MOL    C5148351   6.283   1.150   1.531  0.2517 -0.2551 -0.4000
  151MOL    C5248352   6.389   1.170   1.437  0.9385 -0.6517  0.0168
  151MOL    C5348353   6.500   1.249   1.472 -0.1739 -0.0490 -0.3186
  151MOL   Cl5448354   6.635   1.278   1.357  0.0716  0.2943  0.1691
  151MOL    C5548355   6.500   1.319   1.592  0.2338 -0.5495 -0.0738
  151MOL    C5648356   6.394   1.295   1.683 -0.3145  0.3457  0.6105
  151MOL    C5748357   6.285   1.210   1.658 -0.0312 -0.4594 -0.2597
  151MOL    C5848358   6.142   0.943   1.580 -0.1855  0.4739  0.0100
  151MOL    H5948359   6.170   1.055   1.390  1.3196  0.0795 -0.3335
  151MOL    H6048360   6.388   1.123   1.340 -1.4008 -1.3376  0.3364
  151MOL    H6148361   6.569   1.400   1.609  0.7184 -0.6301 -1.5281
  151MOL    H6248362   6.388   1.352   1.774  1.3730  2.0816 -0.3345
  151MOL    H6348363   6.198   1.201   1.721  0.4959 -0.4471  0.4853
  151MOL    H6448364   6.121   0.980   1.680  0.2847 -1.8915  1.0184
  151MOL    H6548365   6.052   0.891   1.548  0.1436  0.0515 -0.2299
  151MOL    C6648366   6.260   0.846   1.574  0.9462 -0.5792  0.0856
  151MOL    C6748367   6.299   0.796   1.712 -0.5039  0.5228  0.4797
  151MOL    C6848368   6.203   0.740   1.796  0.3432 -0.1896 -0.6343
  151MOL    C6948369   6.242   0.698   1.928  0.5871 -0.3846 -0.3715
  151MOL   Cl7048370   6.114   0.640   2.026  0.0848  0.1957 -0.0112
  151MOL    C7148371   6.378   0.707   1.973  0.2919 -0.4273 -0.1578
  151MOL    C7248372   6.472   0.757   1.875 -0.4726 -0.3198 -0.5207
  151MOL    C7348373   6.433   0.798   1.745 -0.3225 -0.5810 -0.0676
  151MOL    C7448374   6.228   0.722   1.489 -0.6679  0.0717  0.0980
  151MOL    H7548375   6.351   0.896   1.540  1.2076 -1.6178 -0.7740
  151MOL    H7648376   6.099   0.737   1.767 -0.2718 -1.2680  1.5315
  151MOL    H7748377   6.401   0.692   2.078 -2.0838  0.8266  0.5747
  151MOL    H7848378   6.576   0.770   1.899 -1.2063  2.7221  1.4789
  151MOL    H7948379   6.508   0.832   1.676 -0.2627 -1.6368 -0.5370
  151MOL    H8048380   6.291   0.639   1.522  0.4966  0.7307 -0.4531
  151MOL    H8148381   6.133   0.679   1.522 -0.0922 -0.5714  0.9425
  151MOL    C8248382   6.250   0.742   1.334  0.2797  0.0933 -0.3306
  151MOL    C8348383   6.389   0.790   1.307 -0.3914  0.1738  0.4994
  151MOL    C8448384   6.396   0.908   1.227 -0.0222  0.0964  0.8808
  151MOL    C8548385   6.523   0.959   1.184 -1.0637 -0.2622 -0.0074
  151MOL   Cl8648386   6.531   1.078   1.058 -0.4406  0.0182  0.2661
  151MOL    C8748387   6.636   0.901   1.231 -0.2924  0.7570 -0.1938
  151MOL    C8848388   6.633   0.805   1.327 -0.0853 -0.4142  0.2623
  151MOL    C8948389   6.509   0.743   1.358 -0.0364 -0.1900  0.0067
  151MOL    C9048390   6.218   0.608   1.257 -0.6769 -0.7671 -0.5672
  151MOL    H9148391   6.183   0.824   1.307  0.6297  0.9622  1.3292
  151MOL    H9248392   6.309   0.956   1.184  1.1766 -0.3343 -2.1586
  151MOL    H9348393   6.734   0.940   1.207 -0.2579  0.1615 -1.0518
  151MOL    H9448394   6.727   0.774   1.370 -0.1528  0.3837  0.9888
  151MOL    H9548395   6.511   0.654   1.420  0.3988  0.2508  0.6365
  151MOL    H9648396   6.248   0.619   1.152 -0.1344 -1.2459 -0.4659
  151MOL    H9748397   6.279   0.535   1.310  0.4192  1.2422  1.0072
  151MOL    C9848398   6.080   0.555   1.258  0.8793  0.3356  0.1382
  151MOL    C9948399   5.977   0.622   1.171 -0.2701  0.1749 -0.2747
  151MOL   C10048400   6.003   0.663   1.036  0.3580  0.6664  0.4558
  151MOL   C10148401   5.901   0.720   0.959 -0.2832 -0.1173 -0.7924
  151MOL  Cl10248402   5.928   0.765   0.790  0.0375 -0.0191  0.0200
  151MOL   C10348403   5.776   0.740   1.006  0.1228  0.5247 -0.3413
  151MOL   C10448404   5.752   0.699   1.143  0.1762 -0.1152  0.0871
  151MOL   C10548405   5.846   0.641   1.223  0.2674  0.2544  0.2432
  151MOL   C10648406   6.077   0.408   1.211 -0.5092 -0.3025 -0.8578
  151MOL   H10748407   6.038   0.562   1.359 -1.5236 -1.3530 -0.6933
  151MOL   H10848408   6.097   0.654   0.983  0.8437  1.0698  1.2556
  151MOL   H10948409   5.691   0.778   0.951 -1.8575 -0.2747  2.0616
  151MOL   H11048410   5.652   0.711   1.183  0.4925  0.7204  0.6296
  151MOL   H11148411   5.821   0.622   1.327 -0.0287 -3.5899 -0.4640
  151MOL   H11248412   5.975   0.389   1.180 -0.7234 -0.7328  0.0687
  151MOL   H11348413   6.144   0.387   1.128 -1.3777  0.0813 -1.6599
  151MOL   C11448414   6.117   0.308   1.325  0.6182 -0.1296  0.8481
  151MOL   C11548415   6.027   0.324   1.442 -0.6787 -0.5567  0.5702
  151MOL   C11648416   5.895   0.286   1.450 -0.2361 -0.0956 -0.2729
  151MOL   C11748417   5.822   0.301   1.567  0.6958 -0.3724  0.0236
  151MOL  Cl11848418   5.657   0.276   1.553  0.0113  0.3119  0.2454
  151MOL   C11948419   5.881   0.347   1.688  0.2545 -0.5026 -0.0848
  151MOL   C12048420   6.016   0.380   1.685  0.1418  0.4539  0.7389
  151MOL   C12148421   6.088   0.380   1.561  0.2028 -0.3198  0.0175
  151MOL   C12248422   6.097   0.170   1.259  0.2455 -0.2349 -0.0335
  151MOL   H12348423   6.219   0.331   1.354  0.4443  3.0585 -0.8159
  151MOL   H12448424   5.847   0.245   1.363  1.1089  2.4472 -2.2561
  151MOL   H12548425   5.818   0.371   1.772  0.1405 -0.0258 -0.3019
  151MOL   H12648426   6.060   0.417   1.776  2.6850  1.4688 -0.8661
  151MOL   H12748427   6.192   0.406   1.568  0.0086  0.6759 -0.6959
  151MOL   H12848428   5.992   0.148   1.239  0.0013  1.4902 -0.7365
  151MOL   H12948429   6.153   0.173   1.165  2.0727  0.9734  1.0653
  151MOL   C13048430   6.165   0.051   1.333  0.2202 -0.4410  0.4058
  151MOL   C13148431   6.098   0.005   1.462  0.0579  0.2121  0.5562
  151MOL   C13248432   6.163   0.026   1.584  0.1064  0.0521  0.2039
  151MOL   C13348433   6.100   8.424   1.700  0.2828  0.5863 -0.7009
  151MOL  Cl13448434   6.168   0.024   1.852 -0.0436 -0.1172  0.1706
  151MOL   C13548435   5.978   8.349   1.697 -0.1850  0.3576 -0.0714
  151MOL   C13648436   5.914   8.321   1.577  0.4285  0.1319 -0.1413
  151MOL   C13748437   5.980   8.365   1.460  0.0480 -0.2778  0.5599
  151MOL   C13848438   6.212   8.368   1.247 -0.3600  0.1650 -0.1152
  151MOL   H13948439   6.254   0.108   1.357 -0.2435 -0.1128  1.3703
  151MOL   H14048440   6.255   0.082   1.595 -0.7169  1.3020  0.9117
  151MOL   H14148441   5.940   8.317   1.793  3.1048  2.3195  1.9547
  151MOL   H14248442   5.828   8.256   1.577  0.4934 -0.0336 -3.3658
  151MOL   H14348443   5.930   8.354   1.365  0.5930 -0.5038  0.2927
  151MOL   H14448444   6.133   8.296   1.226 -0.8987  0.4377  0.9509
  151MOL   H14548445   6.234   8.387   1.142  0.4493 -1.1677 -0.2053
  151MOL   C14648446   6.333   8.302   1.318  0.2492 -0.8981  0.3005
  151MOL   C14748447   6.336   8.145   1.312 -0.4053 -0.0541  0.4399
  151MOL   C14848448   6.283   8.074   1.424 -0.3722  0.0597  0.1023
  151MOL   C14948449   6.293   7.932   1.427 -0.0993  0.0583  0.3138
  151MOL  Cl15048450   6.231   7.839   1.553  0.5817  0.1688 -0.3274
  151MOL   C15148451   6.348   7.868   1.314  0.4720 -0.7923 -0.2477
  151MOL   C15248452   6.393   7.939   1.200 -0.5136  0.3793  0.7008
  151MOL   C15348453   6.391   8.082   1.201 -0.2591 -0.6797  0.3372
  151MOL   C15448454   6.463   8.372   1.270 -0.2599 -0.1017 -0.0217
  151MOL   H15548455   6.332   8.322   1.425  1.1881 -0.1798  0.1877
  151MOL   H15648456   6.225   8.132   1.495 -1.7630 -0.4100 -0.6297
  151MOL   H15748457   6.349   7.760   1.314  1.1433 -0.7852  0.1553
  151MOL   H15848458   6.429   7.891   1.110  1.1541  1.1505  0.9532
  151MOL   H15948459   6.437   8.133   1.117 -3.1155 -0.2287 -1.0244
  151MOL   H16048460   6.469   8.345   1.164  0.4116  1.0822 -0.2922
  151MOL   H16148461   6.458   0.045   1.265 -0.4330 -0.1832 -1.8508
  151MOL   C16248462   6.590   8.328   1.347  0.5421  0.0086  0.8407
  151MOL   C16348463   6.720   8.303   1.262 -0.3642  0.0756 -0.0191
  151MOL   C16448464   6.786   8.409   1.197  0.0191 -0.3539 -0.0984
  151MOL   C16548465   6.901   8.385   1.117 -0.1724 -0.1454 -0.5901
  151MOL  Cl16648466   6.987   0.071   1.037 -0.1851 -0.0808  0.1299
  151MOL   C16748467   6.941   8.257   1.098 -0.0479  0.3964 -0.2232
  151MOL   C16848468   6.882   8.145   1.158  0.5894  0.5348 -0.5809
  151MOL   C16948469   6.773   8.170   1.248  0.8639  0.5734  0.2242
  151MOL   C17048470   6.597   0.001   1.464 -0.0701  1.1052 -0.9198
  151MOL   H17148471   6.574   8.238   1.405 -0.1112 -0.4849 -0.1063
  151MOL   H17248472   6.739   0.071   1.204  2.3325  0.8093 -0.3686
  151MOL   H17348473   7.023   8.246   1.028  0.7297 -1.1690  0.9155
  151MOL   H17448474   6.929   8.048   1.149 -1.8906 -0.6554 -1.2297
  151MOL   H17548475   6.720   8.087   1.293  2.4854 -3.4309 -4.7783
  151MOL   H17648476   6.638   0.092   1.421  0.8132  0.3223 -1.7646
  151MOL   H17748477   6.494   0.023   1.491 -0.3480 -0.5937 -0.5668
  151MOL   C17848478   6.680   8.386   1.581  0.0598 -0.0734 -0.0596
  151MOL   C17948479   6.697   0.071   1.672  0.8594  0.0099 -0.3259
  151MOL   C18048480   6.589   0.117   1.750 -0.2904  0.5917  0.1450
  151MOL   C18148481   6.603   0.222   1.841 -0.7857 -0.6094 -0.1490
  151MOL  Cl18248482   6.474   0.250   1.955  0.1731  0.2884 -0.2549
  151MOL   C18348483   6.726   0.304   1.833  0.0389 -0.1777 -0.1252
  151MOL   C18448484   6.827   0.261   1.744 -0.0421 -0.2340  0.3026
  151MOL   C18548485   6.811   0.145   1.663 -0.3660  0.7122 -0.4727
  151MOL   C18648486   6.613   8.269   1.657 -0.0534 -0.0463  0.4922
  151MOL   H18748487   6.780   8.359   1.547 -0.1183 -0.0104 -0.6471
  151MOL   H18848488   6.498   0.057   1.750 -1.3642  2.2004 -0.5419
  151MOL   H18948489   6.724   0.393   1.895 -0.2069 -0.4642  0.2752
  151MOL   H19048490   6.913   0.322   1.721 -0.6981  0.4512 -0.3797
  151MOL   H19148491   6.894   0.116   1.600 -1.1220 -2.9757  0.0988
  151MOL   H19248492   6.507   8.295   1.662  0.1063  0.3342  2.1779
  151MOL   H19348493   6.625   8.178   1.597 -0.4667 -0.3597  0.8821
  151MOL   C19448494   6.660   8.228   1.800  0.0772  0.5979 -0.5818
  151MOL   C19548495   6.549   8.143   1.862  0.5461 -0.0152  0.3775
  151MOL   C19648496   6.458   8.199   1.952  0.1443 -0.1356  1.0154
  151MOL   C19748497   6.361   8.112   2.011  0.2089  1.0599 -0.2945
  151MOL  Cl19848498   6.267   8.169   2.148 -0.4589 -0.0313  0.0607
  151MOL   C19948499   6.345   7.981   1.967 -0.1099 -0.4335 -0.2305
  151MOL   C20048500   6.416   7.934   1.854  0.1542 -0.0324  0.0668
  151MOL   C20148501   6.523   8.009   1.811 -0.0834 -0.0758  0.7694
  151MOL   C20248502   6.788   8.150   1.815 -0.2226 -1.0428 -0.7272
  151MOL   H20348503   6.664   8.312   1.868 -2.9035  1.4283 -1.3421
  151MOL   H20448504   6.466   8.302   1.986  1.2652 -0.3755  1.4986
  151MOL   H20548505   6.272   7.917   2.013 -1.8570  0.9782 -0.9812
  151MOL   H20648506   6.410   7.831   1.821  0.8603  0.0409 -0.3029
  151MOL   H20748507   6.573   7.971   1.723 -2.9126  1.1156 -1.4623
  151MOL   H20848508   6.781   8.081   1.899 -3.2987 -1.8648 -1.5891
  151MOL   H20948509   6.808   8.085   1.729  1.7730 -1.2864 -0.1012
  151MOL   C21048510   6.910   8.241   1.846 -0.3777 -0.4517 -0.6267
  151MOL   C21148511   6.898   8.318   1.977  0.1923 -0.7865 -0.1511
  151MOL   C21248512   6.901   8.251   2.098  0.9617  0.2815 -0.4005
  151MOL   C21348513   6.910   8.321   2.224 -0.0078 -0.4484  0.1946
  151MOL  Cl21448514   6.917   8.238   2.374  0.4397  0.3280 -0.4055
  151MOL   C21548515   6.905   0.027   2.229  0.6958 -0.2567 -0.3949
  151MOL   C21648516   6.897   0.097   2.105 -0.2405  0.3765 -0.5752
  151MOL   C21748517   6.901   0.025   1.984  0.2659 -0.5134  0.1879
  151MOL   C21848518   7.045   8.165   1.847 -0.4719 -0.4631  0.2672
  151MOL   H21948519   6.914   8.323   1.774 -0.6971  0.6914  0.6334
  151MOL   H22048520   6.928   8.147   2.107 -0.4046 -0.3016 -2.5464
  151MOL   H22148521   6.898   0.074   2.326  0.3371 -0.5523 -0.2767
  151MOL   H22248522   6.905   0.204   2.102 -1.0936  0.4373 -0.9219
  151MOL   H22348523   6.906   0.079   1.891 -1.9972 -0.7550 -0.1118
  151MOL   H22448524   7.113   8.204   1.923 -0.9211  1.5333 -0.3231
  151MOL   H22548525   7.030   8.064   1.885 -1.5978 -1.4273 -2.6134
  151MOL   C22648526   7.111   8.164   1.705  0.4116 -0.4463  0.1097
  151MOL   C22748527   7.165   8.296   1.662 -0.7995  0.8670 -0.7260
  151MOL   C22848528   7.114   8.360   1.549 -0.5304 -0.0580  0.1895
  151MOL   C22948529   7.168   0.048   1.514  0.0156 -0.3263  0.8644
  151MOL  Cl23048530   7.111   0.128   1.373 -0.1526 -0.1837 -0.0504
  151MOL   C23148531   7.263   0.114   1.590 -0.0021  0.6798  0.5448
  151MOL   C23248532   7.313   0.055   1.711  0.2111 -0.6646 -0.3268
  151MOL   C23348533   7.271   8.361   1.738  0.1029  0.0546  0.4807
  151MOL   C23448534   7.229   8.064   1.691  0.0318  0.0975  0.7343
  151MOL   H23548535   7.035   8.126   1.637 -1.7943 -1.0979  2.8347
  151MOL   H23648536   7.031   8.317   1.495 -0.7891  0.2462  0.3486
  151MOL   H23748537   7.301   0.211   1.565 -3.0178  2.0650  1.0451
  151MOL   H23848538   7.387   0.102   1.774 -2.2234  0.3718  1.8493
  151MOL   H23948539   7.323   8.322   1.824  0.9407  1.4372  0.6178
  151MOL   H24048540   7.297   8.082   1.609 -1.6078 -0.0309 -0.6911
  151MOL   H24148541   7.290   8.076   1.781 -1.0539 -0.0675  1.5120
  151MOL   C24248542   7.180   7.917   1.671 -0.3378 -0.2642  0.1444
  151MOL   C24348543   7.098   7.888   1.541  0.2294 -0.4147 -0.2459
  151MOL   C24448544   6.959   7.881   1.551 -0.1857 -0.9763  0.1099
  151MOL   C24548545   6.876   7.843   1.442 -0.3991 -0.2563 -0.2164
  151MOL  Cl24648546   6.710   7.820   1.464 -0.0330  0.0070 -0.0992
  151MOL   C24748547   6.940   7.808   1.323  0.3623 -0.4821 -0.2830
  151MOL   C24848548   7.079   7.821   1.305 -0.2747 -0.0430  0.2846
  151MOL   C24948549   7.159   7.862   1.412 -0.1231 -0.9321 -0.1668
  151MOL   C25048550   7.299   7.821   1.692  0.6241  0.1955 -0.3630
  151MOL   H25148551   7.118   7.894   1.757 -0.7371 -0.7292 -0.2647
  151MOL   H25248552   6.908   7.902   1.644  0.4758  0.4999  0.1524
  151MOL   H25348553   6.874   7.763   1.250 -0.6644 -0.0900  0.3951
  151MOL   H25448554   7.117   7.778   1.213  1.1509 -0.5883  1.1220
  151MOL   H25548555   7.266   7.857   1.401  0.0287  0.1648  0.7060
  151MOL   H25648556   7.276   7.717   1.667 -0.5084  0.5963 -1.0242
  151MOL   H25748557   7.382   7.855   1.630 -0.6994  1.0291 -1.7094
  151MOL   C25848558   7.366   7.793   1.829 -0.9775 -0.2732  0.1268
  151MOL   C25948559   7.254   7.764   1.924 -0.5870  0.9002  0.1308
  151MOL   C26048560   7.229   7.866   2.017 -0.4896  0.1014 -0.3008
  151MOL   C26148561   7.131   7.843   2.112 -0.5945  0.7772 -0.0462
  151MOL  Cl26248562   7.086   7.964   2.223 -0.2864  0.0777 -0.6980
  151MOL   C26348563   7.058   7.717   2.112  0.0299 -0.3427 -0.5464
  151MOL   C26448564   7.068   7.626   2.009 -0.0947 -0.2679 -0.5240
  151MOL   C26548565   7.172   7.650   1.918 -0.2656 -0.0089  0.2915
  151MOL   C26648566   7.469   7.681   1.820  0.4048 -0.1879 -0.4902
  151MOL   H26748567   7.414   7.885   1.862 -1.9557  0.4407 -0.4673
  151MOL   H26848568   7.289   7.956   2.023  1.4268 -1.1841  0.5282
  151MOL   H26948569   6.982   7.717   2.188  1.7521 -0.2355  1.2099
  151MOL   H27048570   7.007   7.537   2.000  0.7923 -1.0489  0.9612
  151MOL   H27148571   7.183   7.571   1.845 -0.8484  0.3204 -0.1599
  151MOL   H27248572   7.460   7.623   1.912 -0.6483  1.3778  0.4066
  151MOL   H27348573   7.445   7.609   1.741  2.5944 -0.6439 -0.7987
  151MOL   C27448574   7.626   7.717   1.831  0.8639  0.1768  0.2960
  151MOL   C27548575   7.707   7.607   1.893  0.3989  0.2754  0.0529
  151MOL   C27648576   7.699   7.476   1.853  0.2161 -0.5741  0.8833
  151MOL   C27748577   7.782   7.377   1.912  0.0087 -0.5376  0.5703
  151MOL  Cl27848578   7.769   7.214   1.860  0.1559 -0.2977 -0.0482
  151MOL   C27948579   7.863   7.410   2.022  0.3575  0.1964 -0.3096
  151MOL   C28048580   7.874   7.546   2.055 -0.0124  0.5445  0.2114
  151MOL   C28148581   7.800   7.644   1.989  0.1619  0.5099 -0.1928
  151MOL   C28248582   7.688   7.776   1.698 -0.4093 -0.0004 -0.2182
  151MOL   H28348583   7.627   7.793   1.909  0.4567  0.9209 -0.4156
  151MOL   H28448584   7.631   7.447   1.774  0.5911  0.0799  0.3138
  151MOL   H28548585   7.913   7.333   2.079  1.3643  1.6788  0.8901
  151MOL   H28648586   7.954   7.574   2.122  0.3597 -1.6372  0.7418
  151MOL   H28748587   7.818   7.746   2.021  0.2706  0.2066  0.7277
  151MOL   H28848588   7.611   7.844   1.661 -1.0744 -0.0349  1.0617
  151MOL   H28948589   7.765   7.843   1.738 -0.6157  1.5115 -2.2827
  151MOL   C29048590   7.754   7.687   1.597  0.6144  0.0985 -0.0718
  151MOL   C29148591   7.669   7.579   1.530  0.3398 -0.0746  0.3496
  151MOL   C29248592   7.553   7.625   1.469 -0.1768 -0.8494 -0.0540
  151MOL   C29348593   7.488   7.550   1.371 -0.2702  0.3911 -0.0973
  151MOL  Cl29448594   7.360   7.622   1.276 -0.0539  0.1010  0.0067
  151MOL   C29548595   7.534   7.417   1.346 -0.3862 -0.1128 -0.2025
  151MOL   C29648596   7.646   7.364   1.413  0.5923 -0.0704  0.8047
  151MOL   C29748597   7.716   7.445   1.504 -0.2671  0.0522  0.3786
  151MOL   C29848598   7.837   7.768   1.489 -0.0929 -0.8031  1.1550
  151MOL   H29948599   7.829   7.630   1.652  0.9122 -2.3977 -2.9315
  151MOL   H30048600   7.531   7.730   1.460 -2.2797 -1.2632 -0.1149
  151MOL   H30148601   7.489   7.352   1.272 -1.1317  0.7497 -0.5108
  151MOL   H30248602   7.676   7.265   1.384 -1.1120 -0.5803  0.7545
  151MOL   H30348603   7.809   7.410   1.546  0.3358  1.2899  0.1109
  151MOL   H30448604   7.775   7.813   1.411  0.6291  0.0054  1.0489
  151MOL   H30548605   7.875   7.848   1.552  1.6852 -0.5914 -0.1546
  151MOL   C30648606   7.964   7.708   1.427 -0.3450 -0.6680 -0.6487
  151MOL   C30748607   7.931   7.605   1.318  0.9808  0.3170 -0.4878
  151MOL   C30848608   7.816   7.608   1.233 -0.3256  0.1183 -1.0252
  151MOL   C30948609   7.791   7.515   1.132  0.6527 -0.2282  0.1590
  151MOL  Cl31048610   7.640   7.505   1.048  0.2704 -0.0968  0.2963
  151MOL   C31148611   7.878   7.412   1.113 -0.0112 -0.6716 -0.6587
  151MOL   C31248612   7.996   7.413   1.186 -0.3117 -0.1226 -0.0701
  151MOL   C31348613   8.022   7.503   1.292 -0.2642 -0.0645 -0.4476
  151MOL   C31448614   8.057   7.824   1.377  0.5405  0.0892 -1.1776
  151MOL   H31548615   8.007   7.655   1.512  2.0687  2.2632  0.0191
  151MOL   H31648616   7.746   7.688   1.250  1.5187  1.3196  1.1293
  151MOL   H31748617   7.867   7.339   1.033 -0.8562 -2.1819  0.7998
  151MOL   H31848618   8.067   7.337   1.158 -0.9833 -0.2293 -1.5124
  151MOL   H31948619   8.110   7.497   1.355  0.7694  0.3685 -1.8319
  151MOL   H32048620   8.016   7.829   1.276 -1.8414 -0.8221 -0.3000
  151MOL   H32148621   8.047   7.921   1.425 -0.9508 -1.0647  0.9652
  151MOL   H32248622   8.160   7.791   1.371 -0.0842 -2.3338  0.5301
  152MOL     C148623   7.017   5.458   1.552 -0.1010  0.4119 -0.5193
  152MOL     C248624   7.018   5.495   1.408  1.0082  0.1803  0.2396
  152MOL     C348625   7.003   5.393   1.308  0.4257 -0.1268 -0.5563
  152MOL     C448626   6.990   5.422   1.174  0.7886 -0.6047  0.1390
  152MOL    Cl548627   6.963   5.291   1.065  0.0352  0.4343 -0.2917
  152MOL     C648628   7.017   5.552   1.126 -0.3104  0.5401 -0.0548
  152MOL     C748629   7.047   5.659   1.221  0.2217  0.4188  0.2275
  152MOL     C848630   7.049   5.625   1.359  0.1977 -0.5029 -0.9176
  152MOL     C948631   7.098   5.333   1.603  0.0044  0.2607 -0.5562
  152MOL    H1048632   6.919   5.446   1.597 -1.8436  3.1003 -3.4370
  152MOL    H1148633   6.974   5.293   1.337  1.5318 -0.1890  0.3380
  152MOL    H1248634   7.014   5.569   1.019  0.8115 -3.0352 -0.7205
  152MOL    H1348635   7.061   5.761   1.189  0.2572 -0.0827 -1.3917
  152MOL    H1448636   7.080   5.701   1.429 -0.3714  0.4332 -1.6821
  152MOL    H1548637   7.060   5.246   1.548 -0.9428 -1.7798  3.1815
  152MOL    H1648638   7.196   5.329   1.556  0.2199 -0.3792 -0.0541
  152MOL    H1748639   7.060   5.537   1.614  0.8684 -0.1510 -0.4683
  152MOL    C1848640   7.088   5.312   1.752  0.1826  0.9289 -0.5610
  152MOL    C1948641   7.140   5.170   1.782  0.2494  0.0734  0.6677
  152MOL    C2048642   7.056   5.075   1.838 -0.4390  0.4413  0.3685
  152MOL    C2148643   7.106   4.952   1.875 -1.0059 -0.5338 -0.0675
  152MOL   Cl2248644   7.012   4.850   1.974 -0.3296 -0.3632  0.2386
  152MOL    C2348645   7.237   4.918   1.843 -0.6461 -0.0848 -1.0863
  152MOL    C2448646   7.318   5.009   1.770  0.6439 -0.0559 -0.6319
  152MOL    C2548647   7.271   5.143   1.749 -1.0150  0.0159  0.0954
  152MOL    C2648648   7.135   5.428   1.853 -0.7908 -0.3763  0.3355
  152MOL    H2748649   6.981   5.306   1.775  0.1796 -0.4018 -0.9149
  152MOL    H2848650   6.953   5.095   1.863 -0.4576  1.6551 -0.6487
  152MOL    H2948651   7.280   4.824   1.877 -1.2396  0.3070  0.8090
  152MOL    H3048652   7.421   4.987   1.744  1.4289  1.1287  1.3070
  152MOL    H3148653   7.335   5.215   1.700  1.6742 -1.8667  0.6916
  152MOL    H3248654   7.237   5.460   1.831 -0.6714 -0.7555  0.3277
  152MOL    H3348655   7.078   5.519   1.833  1.9969  1.0286 -1.6324
  152MOL    C3448656   7.141   5.400   2.004 -0.0443 -0.3897  0.1118
  152MOL    C3548657   7.186   5.528   2.072  0.8972 -0.6126  0.1585
  152MOL    C3648658   7.102   5.641   2.081  0.2834 -0.5018 -0.0427
  152MOL    C3748659   7.146   5.755   2.148 -0.5921  0.5893  0.3984
  152MOL   Cl3848660   7.049   5.899   2.147  0.0915  0.3046 -0.0355
  152MOL    C3948661   7.280   5.753   2.196 -0.3011 -0.3303  0.9243
  152MOL    C4048662   7.361   5.642   2.193  0.2962  0.1707 -0.0366
  152MOL    C4148663   7.317   5.533   2.123  0.4865 -0.2945  0.2974
  152MOL    C4248664   7.016   5.339   2.070 -0.0732  0.1810  0.4849
  152MOL    H4348665   7.222   5.327   2.000 -0.0725 -0.3357 -2.2063
  152MOL    H4448666   7.001   5.646   2.043 -0.5970  2.2992  2.4779
  152MOL    H4548667   7.315   5.845   2.242 -3.9641  1.4822  0.3283
  152MOL    H4648668   7.460   5.650   2.236  1.3646 -1.1117 -2.1744
  152MOL    H4748669   7.379   5.447   2.104 -0.1370 -0.2608 -2.0304
  152MOL    H4848670   6.961   5.409   2.133  1.0412  0.4605  1.1647
  152MOL    H4948671   6.944   5.322   1.990 -0.1783  1.6579  0.2455
  152MOL    C5048672   7.031   5.217   2.158  0.2389 -0.2156  0.0961
  152MOL    C5148673   7.138   5.233   2.260 -0.2589 -0.1311 -0.7275
  152MOL    C5248674   7.148   5.350   2.337 -0.7364 -0.9886  0.8133
  152MOL    C5348675   7.250   5.368   2.433  0.2622 -0.8953 -0.1969
  152MOL   Cl5448676   7.248   5.514   2.522 -0.3057 -0.4968  0.3176
  152MOL    C5548677   7.361   5.282   2.430 -0.1260 -0.6093  0.6073
  152MOL    C5648678   7.363   5.179   2.339  0.3564  0.4377 -0.0840
  152MOL    C5748679   7.252   5.148   2.256 -0.4715 -0.4749  0.8554
  152MOL    C5848680   6.899   5.169   2.212 -0.2201 -0.2794  0.1661
  152MOL    H5948681   7.062   5.142   2.085 -0.3999  0.0595 -0.4634
  152MOL    H6048682   7.074   5.429   2.332 -1.5011 -1.7077  0.5796
  152MOL    H6148683   7.442   5.301   2.498  0.0108 -0.2940  0.3601
  152MOL    H6248684   7.453   5.121   2.329 -1.1384 -1.8167 -0.9505
  152MOL    H6348685   7.257   5.054   2.205 -0.9828  0.2667 -0.5934
  152MOL    H6448686   6.840   5.255   2.245 -0.9916 -1.2589  1.3747
  152MOL    H6548687   6.855   5.116   2.127  0.8178 -3.1412  1.3426
  152MOL    C6648688   6.896   5.069   2.325  0.2787 -0.2315 -0.6672
  152MOL    C6748689   6.879   5.144   2.456 -0.5920 -1.2707 -0.7947
  152MOL    C6848690   6.756   5.205   2.485  0.1261 -0.6046  0.2009
  152MOL    C6948691   6.742   5.275   2.610 -0.2700 -0.5252  0.8313
  152MOL   Cl7048692   6.594   5.370   2.649  0.2157  0.2591  0.3176
  152MOL    C7148693   6.846   5.279   2.706 -0.0795  0.2229 -0.4270
  152MOL    C7248694   6.972   5.216   2.680  0.2519 -0.0174  0.3757
  152MOL    C7348695   6.979   5.149   2.554  0.3512  0.3119 -0.5087
  152MOL    C7448696   6.779   4.964   2.312  0.1875  0.5525 -0.8271
  152MOL    H7548697   6.979   4.999   2.333  0.3670 -0.3773 -2.5678
  152MOL    H7648698   6.672   5.214   2.418  0.5960  1.1258 -0.1818
  152MOL    H7748699   6.832   5.320   2.805 -0.2066 -0.3723 -0.2010
  152MOL    H7848700   7.049   5.220   2.755 -1.7001 -1.2819  2.5173
  152MOL    H7948701   7.074   5.099   2.538 -0.7650 -1.7735 -0.6798
  152MOL    H8048702   6.684   5.015   2.294 -0.0765 -0.1778 -1.5108
  152MOL    H8148703   6.787   4.910   2.218  1.0085 -1.7793  0.5249
  152MOL    C8248704   6.782   4.843   2.417  0.2817 -0.2997 -0.0077
  152MOL    C8348705   6.691   4.861   2.537 -0.1032 -0.2961 -0.3276
  152MOL    C8448706   6.743   4.919   2.661 -0.2270  0.0664  0.6598
  152MOL    C8548707   6.657   4.937   2.770 -0.3408 -0.1389  0.2513
  152MOL   Cl8648708   6.710   4.977   2.918 -0.0249  0.2552  0.0429
  152MOL    C8748709   6.520   4.894   2.766  0.8433  0.5653 -0.1773
  152MOL    C8848710   6.469   4.846   2.646 -0.2828  0.4730 -0.8708
  152MOL    C8948711   6.550   4.835   2.531 -0.0319  0.5487 -0.6563
  152MOL    C9048712   6.740   4.713   2.343 -0.5964 -0.7643  0.1078
  152MOL    H9148713   6.883   4.830   2.454 -0.7355 -1.0451  2.5624
  152MOL    H9248714   6.847   4.949   2.672 -0.8030  1.7344  1.7577
  152MOL    H9348715   6.460   4.896   2.855 -1.1351 -0.3042 -1.4452
  152MOL    H9448716   6.365   4.819   2.647 -0.0547 -0.4150 -1.0505
  152MOL    H9548717   6.508   4.801   2.437 -0.2679 -0.6034 -0.1438
  152MOL    H9648718   6.706   4.641   2.417  0.5169 -0.5191  0.8686
  152MOL    H9748719   6.654   4.735   2.280 -1.4304  0.8112  1.7721
  152MOL    C9848720   6.859   4.654   2.263 -0.1942  0.1061  0.9500
  152MOL    C9948721   6.987   4.646   2.346 -0.2476 -0.5027 -0.0425
  152MOL   C10048722   7.098   4.731   2.321  0.0456 -0.4948  0.5163
  152MOL   C10148723   7.210   4.723   2.402 -0.0641  0.2886 -0.9650
  152MOL  Cl10248724   7.343   4.829   2.374 -0.3340  0.0643  0.1224
  152MOL   C10348725   7.213   4.639   2.512  0.4643 -0.6474  0.1771
  152MOL   C10448726   7.111   4.552   2.531  0.0503  0.1990 -0.2593
  152MOL   C10548727   7.000   4.555   2.448  0.1008  0.1710 -0.2469
  152MOL   C10648728   6.827   4.519   2.190 -0.1300  0.3422 -0.9082
  152MOL   H10748729   6.886   4.718   2.179  1.5275 -2.0334 -0.1887
  152MOL   H10848730   7.100   4.802   2.239  1.4557  2.6411  3.1588
  152MOL   H10948731   7.307   4.643   2.565  1.1514 -0.3395 -1.0281
  152MOL   H11048732   7.115   4.486   2.617  0.4195  0.8384  0.2119
  152MOL   H11148733   6.926   4.480   2.470  1.5087 -0.9009  1.0305
  152MOL   H11248734   6.913   4.504   2.124  1.1036  2.7338  0.1081
  152MOL   H11348735   6.839   4.439   2.262  1.8178  1.0673 -0.3898
  152MOL   C11448736   6.687   4.521   2.122 -0.6466  0.8940  0.0796
  152MOL   C11548737   6.656   4.632   2.026 -0.6654  0.8833  0.0878
  152MOL   C11648738   6.744   4.654   1.920 -0.6710  0.0488 -0.8413
  152MOL   C11748739   6.718   4.753   1.829 -0.3783  0.7866  0.6574
  152MOL  Cl11848740   6.816   4.769   1.685 -0.0313  0.0454  0.1498
  152MOL   C11948741   6.604   4.840   1.834 -0.2836  0.2115  0.4715
  152MOL   C12048742   6.514   4.820   1.938 -0.1682 -0.3155  0.1257
  152MOL   C12148743   6.545   4.718   2.035 -0.7442 -0.0466  0.2401
  152MOL   C12248744   6.645   4.383   2.056  0.2675 -0.0330 -0.5738
  152MOL   H12348745   6.611   4.543   2.197 -0.3860 -0.1374  0.6623
  152MOL   H12448746   6.831   4.592   1.906  0.3088  1.4294 -1.0753
  152MOL   H12548747   6.575   4.905   1.754  0.6139  0.6249  0.4691
  152MOL   H12648748   6.426   4.881   1.954 -0.9979 -1.7686  1.1592
  152MOL   H12748749   6.470   4.703   2.112 -1.5889 -1.6593 -0.8580
  152MOL   H12848750   6.548   4.408   2.014  1.4557  0.7957 -2.9310
  152MOL   H12948751   6.705   4.348   1.972 -0.1888  0.5358 -1.1416
  152MOL   C13048752   6.632   4.266   2.161 -0.7465 -0.2721 -0.8167
  152MOL   C13148753   6.553   4.299   2.292 -0.6249  0.1940 -0.4921
  152MOL   C13248754   6.619   4.320   2.416 -0.4903 -0.1325  0.5631
  152MOL   C13348755   6.547   4.365   2.534  0.0080 -0.2096  0.1703
  152MOL  Cl13448756   6.625   4.395   2.684  0.0814 -0.4879  0.0600
  152MOL   C13548757   6.408   4.388   2.525  0.2531 -0.7959  0.0171
  152MOL   C13648758   6.337   4.358   2.404  0.4412 -0.2741  0.2084
  152MOL   C13748759   6.409   4.323   2.288  0.1286  0.0653 -0.1697
  152MOL   C13848760   6.597   4.133   2.088 -0.6906 -0.5922  0.6483
  152MOL   H13948761   6.736   4.258   2.191 -1.4259 -0.2323  1.7105
  152MOL   H14048762   6.727   4.318   2.426 -0.2433 -0.5759 -1.9499
  152MOL   H14148763   6.350   4.420   2.611  1.6955 -2.0179  1.4702
  152MOL   H14248764   6.235   4.390   2.393  1.0194  0.6386 -2.8724
  152MOL   H14348765   6.365   4.309   2.190  1.7515  1.1925 -1.0874
  152MOL   H14448766   6.505   4.141   2.030  1.3919  1.8949 -2.4454
  152MOL   H14548767   6.664   4.125   2.002 -0.6604 -0.6041  0.6732
  152MOL   C14648768   6.595   4.012   2.182 -0.1426  0.5087  0.1356
  152MOL   C14748769   6.482   3.926   2.126  0.0437  0.7504 -0.0594
  152MOL   C14848770   6.348   3.960   2.164 -0.3318 -0.3113 -0.1523
  152MOL   C14948771   6.240   3.882   2.113  0.8056 -1.0058 -0.4837
  152MOL  Cl15048772   6.073   3.910   2.155 -0.1644 -0.2995 -0.0405
  152MOL   C15148773   6.268   3.778   2.024  0.3081 -0.0465  0.2591
  152MOL   C15248774   6.397   3.759   1.978  0.3775  0.3609  0.7399
  152MOL   C15348775   6.508   3.824   2.034 -0.0306 -0.0474  0.2363
  152MOL   C15448776   6.738   3.946   2.186  0.0344  0.1833 -0.3240
  152MOL   H15548777   6.562   4.046   2.280 -0.3228  3.4092 -0.8708
  152MOL   H15648778   6.342   4.036   2.240  1.2342 -1.7272  1.4273
  152MOL   H15748779   6.194   3.711   1.983  1.4255 -1.0752 -0.0771
  152MOL   H15848780   6.421   3.688   1.900  0.6601  1.3497 -0.0981
  152MOL   H15948781   6.610   3.803   2.004  0.0529  1.8109 -0.8773
  152MOL   H16048782   6.766   3.880   2.104 -1.7268 -1.9750  0.7333
  152MOL   H16148783   6.812   4.026   2.183  2.9878 -2.5069 -1.8297
  152MOL   C16248784   6.763   3.866   2.314  0.3956 -0.1691  0.4488
  152MOL   C16348785   6.874   3.762   2.297  0.0797  0.1223  0.1306
  152MOL   C16448786   6.848   3.626   2.321 -0.4461  0.5942  0.3190
  152MOL   C16548787   6.951   3.535   2.322  0.3057  0.6196  0.0997
  152MOL  Cl16648788   6.920   3.374   2.373 -0.0317  0.3397  0.1166
  152MOL   C16748789   7.080   3.569   2.286 -0.2254  0.4982  0.8759
  152MOL   C16848790   7.110   3.707   2.272  0.6679 -0.4768 -0.0012
  152MOL   C16948791   7.005   3.803   2.267  0.5807  0.4447 -0.6300
  152MOL   C17048792   6.797   3.975   2.429  0.0137 -0.1138  0.3924
  152MOL   H17148793   6.671   3.817   2.346 -0.8424  1.3109 -0.7664
  152MOL   H17248794   6.747   3.592   2.338  0.3662 -2.3814 -0.4117
  152MOL   H17348795   7.156   3.492   2.288  0.4326  1.1518  1.2994
  152MOL   H17448796   7.208   3.742   2.243  0.0349  0.8130 -0.6350
  152MOL   H17548797   7.029   3.907   2.249 -0.1808  0.9658  1.2352
  152MOL   H17648798   6.891   4.021   2.400 -0.5104  0.5415 -0.2557
  152MOL   H17748799   6.715   4.046   2.442 -1.3094 -2.0799  3.5388
  152MOL   C17848800   6.817   3.917   2.571  1.2321  0.7399  0.0749
  152MOL   C17948801   6.913   4.001   2.651  0.4239 -0.3072  0.0619
  152MOL   C18048802   6.894   4.136   2.672 -0.4237  0.2762  0.4231
  152MOL   C18148803   6.979   4.209   2.747 -0.6213  0.0453  1.2802
  152MOL  Cl18248804   6.938   4.377   2.777  0.0888 -0.2782  0.2399
  152MOL   C18348805   7.093   4.147   2.812  0.4437  0.6384  0.4573
  152MOL   C18448806   7.118   4.009   2.779  0.0605 -0.3331  0.2323
  152MOL   C18548807   7.027   3.936   2.701 -0.0878 -0.4588  0.0821
  152MOL   C18648808   6.688   3.878   2.646  0.0160  0.3584 -0.3981
  152MOL   H18748809   6.864   3.821   2.551  0.2094  0.5840 -1.6716
  152MOL   H18848810   6.804   4.175   2.626 -0.9758 -0.1011  1.1829
  152MOL   H18948811   7.162   4.207   2.869  0.6245  1.2673 -0.4125
  152MOL   H19048812   7.209   3.966   2.818  1.4720  1.8234 -0.6247
  152MOL   H19148813   7.046   3.831   2.687 -2.5643 -1.0300  0.8856
  152MOL   H19248814   6.645   3.825   2.561 -0.0385  2.0115 -1.4230
  152MOL   H19348815   6.702   3.805   2.726  2.1961  2.0837  0.8615
  152MOL   C19448816   6.597   3.983   2.702 -0.4145  0.2693  0.3277
  152MOL   C19548817   6.450   3.943   2.677  0.3375  0.3341 -0.3932
  152MOL   C19648818   6.373   4.014   2.590  0.7105 -0.2064  0.1909
  152MOL   C19748819   6.235   3.986   2.569  0.8416 -0.1426 -0.1310
  152MOL  Cl19848820   6.141   4.089   2.464 -0.3748  0.3128 -0.0185
  152MOL   C19948821   6.179   3.879   2.638  0.0319 -0.3679  0.8850
  152MOL   C20048822   6.261   3.800   2.720 -0.7370 -0.2812  0.5510
  152MOL   C20148823   6.393   3.831   2.743 -0.4680 -0.0196 -0.2345
  152MOL   C20248824   6.617   4.007   2.853 -0.6989  0.0699  0.6311
  152MOL   H20348825   6.621   4.076   2.649  1.3167 -1.3970 -1.9257
  152MOL   H20448826   6.418   4.092   2.531 -0.5803  0.3250 -0.1153
  152MOL   H20548827   6.073   3.868   2.623  0.2364 -1.2031 -0.0005
  152MOL   H20648828   6.217   3.710   2.761 -0.1614  0.0377  1.8976
  152MOL   H20748829   6.456   3.765   2.800 -0.9530 -0.0591  0.2586
  152MOL   H20848830   6.610   3.915   2.911  1.7841 -0.0337  0.8333
  152MOL   H20948831   6.721   4.039   2.864  0.2685 -2.4998 -0.6543
  152MOL   C21048832   6.539   4.122   2.910  0.7581  0.6262  0.0467
  152MOL   C21148833   6.401   4.080   2.969  0.0475 -0.3790 -0.1970
  152MOL   C21248834   6.392   3.980   3.073 -0.9219  0.4851  0.5693
  152MOL   C21348835   6.262   3.958   3.125 -0.3817  0.9986 -0.2595
  152MOL  Cl21448836   6.248   3.853   3.266 -0.0128  0.2813 -0.2363
  152MOL   C21548837   6.148   4.023   3.078  0.5518  0.2627 -0.0880
  152MOL   C21648838   6.156   4.111   2.973 -0.0143 -0.0545  0.6527
  152MOL   C21748839   6.284   4.143   2.919 -0.0028  0.2194  0.3054
  152MOL   C21848840   6.624   4.211   3.003  0.5034 -0.2098 -0.6681
  152MOL   H21948841   6.510   4.187   2.828  2.1475 -1.0902 -1.8365
  152MOL   H22048842   6.481   3.944   3.122 -0.7305 -1.2042 -0.9953
  152MOL   H22148843   6.051   3.993   3.113 -0.1578  0.1589 -2.1029
  152MOL   H22248844   6.076   4.167   2.927 -0.8792  0.3499  2.6031
  152MOL   H22348845   6.288   4.227   2.851  1.0820 -1.6545 -2.0238
  152MOL   H22448846   6.687   4.150   3.068  1.3161 -0.0243 -1.2648
  152MOL   H22548847   6.691   4.261   2.932 -0.1362 -0.7646 -1.6616
  152MOL   C22648848   6.550   4.324   3.094  0.3762  0.0039  0.0347
  152MOL   C22748849   6.471   4.270   3.213 -0.5882  0.8037 -0.4312
  152MOL   C22848850   6.336   4.312   3.230  0.2845 -0.5774  0.2052
  152MOL   C22948851   6.265   4.265   3.342  0.2718 -0.4293  0.2503
  152MOL  Cl23048852   6.112   4.343   3.376  0.0260  0.1264 -0.0222
  152MOL   C23148853   6.314   4.167   3.430 -0.8541 -0.4092 -0.0232
  152MOL   C23248854   6.442   4.123   3.407 -0.4829 -0.7678 -0.3959
  152MOL   C23348855   6.523   4.170   3.298  0.5376 -0.1860  0.7082
  152MOL   C23448856   6.651   4.434   3.149  0.1004 -0.2363  0.8046
  152MOL   H23548857   6.472   4.377   3.040  1.2972  1.8844  0.4927
  152MOL   H23648858   6.298   4.388   3.163 -0.3176 -0.5222  0.6081
  152MOL   H23748859   6.262   4.134   3.518 -2.7541  2.9549  0.2079
  152MOL   H23848860   6.484   4.053   3.478 -1.9058  0.0940  1.3537
  152MOL   H23948861   6.623   4.130   3.284  0.1795 -0.7181 -0.3865
  152MOL   H24048862   6.623   4.461   3.250 -0.5035  2.6112 -0.0574
  152MOL   H24148863   6.752   4.394   3.146  1.3924  2.9579 -2.0783
  152MOL   C24248864   6.646   4.562   3.060 -0.2616 -0.0678  0.0222
  152MOL   C24348865   6.500   4.619   3.055  0.5652  0.2801 -0.5716
  152MOL   C24448866   6.429   4.601   2.932  0.3811  0.4839  0.2890
  152MOL   C24548867   6.298   4.649   2.922  0.1954  0.4585 -0.2312
  152MOL  Cl24648868   6.209   4.639   2.774 -0.3028 -0.1102  0.2992
  152MOL   C24748869   6.236   4.709   3.035 -1.5795 -0.2351 -0.0319
  152MOL   C24848870   6.313   4.733   3.150  0.3520 -0.7390 -0.8274
  152MOL   C24948871   6.445   4.693   3.159  0.1942 -0.2389 -0.6739
  152MOL   C25048872   6.749   4.664   3.109 -0.9830 -0.6309  0.3628
  152MOL   H25148873   6.680   4.532   2.961 -1.6786  1.0539 -0.8291
  152MOL   H25248874   6.470   4.540   2.853 -3.3165 -1.5611 -0.1688
  152MOL   H25348875   6.132   4.738   3.036 -1.3223  0.6894  0.0009
  152MOL   H25448876   6.280   4.801   3.226  0.0709  2.3635 -3.6153
  152MOL   H25548877   6.509   4.726   3.240 -0.3636 -0.9785  0.0743
  152MOL   H25648878   6.719   4.748   3.045 -0.1046 -0.1057  0.6339
  152MOL   H25748879   6.735   4.694   3.213  0.1015 -2.7913  1.1587
  152MOL   C25848880   6.898   4.647   3.093 -0.2440  0.6341 -0.4563
  152MOL   C25948881   6.966   4.777   3.050 -0.1467 -0.0957  1.0654
  152MOL   C26048882   7.039   4.781   2.932  0.8987  0.4741  1.0356
  152MOL   C26148883   7.098   4.898   2.888  0.1684 -0.3288 -0.4868
  152MOL  Cl26248884   7.184   4.915   2.741  0.0886  0.0731 -0.1127
  152MOL   C26348885   7.102   5.004   2.976 -0.6912 -0.3037 -1.0835
  152MOL   C26448886   7.034   5.002   3.102 -0.2997 -0.4784 -0.2216
  152MOL   C26548887   6.958   4.890   3.135 -0.5844  0.2626  0.3382
  152MOL   C26648888   6.953   4.583   3.231 -0.4054  0.6288  0.0094
  152MOL   H26748889   6.907   4.575   3.012 -0.1251  1.5079 -1.2146
  152MOL   H26848890   7.057   4.690   2.877  2.4972  0.4857  1.5107
  152MOL   H26948891   7.165   5.088   2.952  1.4452 -0.6664  2.7293
  152MOL   H27048892   7.049   5.083   3.172 -3.6600 -0.8872  1.0742
  152MOL   H27148893   6.903   4.888   3.228  0.4456 -0.6080  0.9354
  152MOL   H27248894   6.986   4.662   3.297 -0.0596  0.5855 -0.1102
  152MOL   H27348895   6.865   4.543   3.280 -0.9861  0.3235 -1.2451
  152MOL   C27448896   7.065   4.472   3.208  0.6790 -0.8296 -0.1283
  152MOL   C27548897   7.187   4.537   3.144  0.2196  0.3442  0.5728
  152MOL   C27648898   7.240   4.489   3.025 -0.2546  0.4310  0.0431
  152MOL   C27748899   7.344   4.549   2.953 -0.3163  0.2495 -0.5531
  152MOL  Cl27848900   7.384   4.495   2.794 -0.4075  0.1856  0.1252
  152MOL   C27948901   7.413   4.655   3.015  0.1868  0.9465  0.2772
  152MOL   C28048902   7.367   4.711   3.132 -0.3064  0.4431 -0.4446
  152MOL   C28148903   7.249   4.658   3.197 -0.3852  0.0894  0.6635
  152MOL   C28248904   7.102   4.412   3.345 -0.6868  0.1203 -0.6305
  152MOL   H28348905   7.022   4.391   3.149 -1.4374 -0.0011  0.2267
  152MOL   H28448906   7.189   4.405   2.979 -0.4877  0.5188  0.1445
  152MOL   H28548907   7.493   4.713   2.972  0.5569 -0.2667 -0.6930
  152MOL   H28648908   7.413   4.801   3.170  0.4576 -0.0205 -0.2418
  152MOL   H28748909   7.216   4.697   3.292 -3.1430  1.0794 -0.6598
  152MOL   H28848910   7.167   4.491   3.382  1.7691 -1.9865 -0.2675
  152MOL   H28948911   7.011   4.404   3.405 -0.3748  2.2367  0.1500
  152MOL   C29048912   7.177   4.278   3.340  0.2097 -0.7716  0.1356
  152MOL   C29148913   7.235   4.250   3.477  0.9026 -0.0004  0.7412
  152MOL   C29248914   7.154   4.274   3.595 -0.2296 -0.6093  0.2777
  152MOL   C29348915   7.211   4.256   3.721  1.0509 -0.9763  0.1923
  152MOL  Cl29448916   7.114   4.292   3.858 -0.4872  0.2440  0.1675
  152MOL   C29548917   7.346   4.218   3.739 -0.3222  0.2610  0.5072
  152MOL   C29648918   7.420   4.187   3.622 -0.3235  0.0989  0.3171
  152MOL   C29748919   7.360   4.194   3.493  0.0142 -0.0066 -0.0196
  152MOL   C29848920   7.084   4.165   3.287 -0.1104  0.6309  0.8370
  152MOL   H29948921   7.266   4.287   3.278 -0.5874  0.3306 -0.8898
  152MOL   H30048922   7.055   4.315   3.591 -1.2034 -2.9614 -0.7796
  152MOL   H30148923   7.391   4.204   3.837 -1.3334  1.5556  1.1719
  152MOL   H30248924   7.514   4.136   3.637 -0.2284  0.6206  1.5634
  152MOL   H30348925   7.419   4.164   3.407  1.1330 -3.2202  1.7798
  152MOL   H30448926   6.995   4.164   3.350 -1.8297 -0.9690 -1.5385
  152MOL   H30548927   7.051   4.182   3.185  0.4530 -1.5584  0.2659
  152MOL   C30648928   7.147   4.032   3.300 -0.2335  0.6439  0.4209
  152MOL   C30748929   7.036   3.920   3.287  0.0534 -0.6927  0.1948
  152MOL   C30848930   6.981   3.893   3.159  0.6018  0.3855  0.0532
  152MOL   C30948931   6.898   3.784   3.134 -0.0205  0.3574 -0.1919
  152MOL  Cl31048932   6.865   3.746   2.967  0.0625 -0.0734 -0.0683
  152MOL   C31148933   6.855   3.709   3.241 -0.2842 -0.4524  0.4461
  152MOL   C31248934   6.897   3.739   3.370  0.2762  0.4181 -0.4070
  152MOL   C31348935   6.988   3.841   3.395  0.7915 -0.0499  0.0512
  152MOL   C31448936   7.273   4.004   3.209 -0.3973  0.2191  0.5381
  152MOL   H31548937   7.187   4.012   3.399  1.9040 -1.0624 -0.7264
  152MOL   H31648938   7.028   3.939   3.073  1.4162 -1.9835 -0.8283
  152MOL   H31748939   6.791   3.628   3.211  0.2003 -0.4400 -0.6288
  152MOL   H31848940   6.861   3.681   3.454 -1.9438 -0.8162 -2.1789
  152MOL   H31948941   7.014   3.865   3.497  1.7515  1.8919 -0.6326
  152MOL   H32048942   7.243   3.988   3.106  1.3622 -0.7151  0.1445
  152MOL   H32148943   7.338   4.090   3.223  0.7975 -0.6643  0.5129
  152MOL   H32248944   7.317   3.909   3.239  1.8417  0.6067 -1.3715
  153MOL     C148945   4.099   6.421   1.970  0.1075  0.5554  1.0141
  153MOL     C248946   4.203   6.376   1.869 -0.3226 -0.2611  0.0421
  153MOL     C348947   4.280   6.483   1.818  0.8094  0.5768  0.0527
  153MOL     C448948   4.371   6.453   1.714  0.1966  0.3446  1.0269
  153MOL    Cl548949   4.461   6.573   1.623  0.3731 -0.1662  0.2448
  153MOL     C648950   4.375   6.323   1.667 -0.4977  0.6047  0.4335
  153MOL     C748951   4.301   6.214   1.723 -0.2888  0.2007  0.0332
  153MOL     C848952   4.206   6.242   1.819 -0.4211 -0.3440 -0.0014
  153MOL     C948953   4.152   6.426   2.113 -0.0694 -0.1770  0.3451
  153MOL    H1048954   4.018   6.348   1.969 -0.1977  0.8628  2.1486
  153MOL    H1148955   4.270   6.586   1.847  1.1197  0.6450 -0.0880
  153MOL    H1248956   4.432   6.302   1.578  1.4638 -1.1592  2.0259
  153MOL    H1348957   4.307   6.115   1.681  3.7120  0.2356  0.2754
  153MOL    H1448958   4.148   6.160   1.859  1.8477 -1.0077  2.0327
  153MOL    H1548959   4.070   6.402   2.182  2.1728 -2.8991  2.1951
  153MOL    H1648960   4.221   6.345   2.137 -0.3642 -0.2930  0.8287
  153MOL    H1748961   4.051   6.512   1.935 -0.5731 -0.4352 -0.7030
  153MOL    C1848962   4.239   6.543   2.148  0.6312  0.8520  0.3970
  153MOL    C1948963   4.182   6.677   2.114  0.3186  0.0166 -0.5602
  153MOL    C2048964   4.249   6.772   2.036 -0.0352 -0.8708  0.3943
  153MOL    C2148965   4.188   6.898   2.011  0.0877  0.2653  1.1604
  153MOL   Cl2248966   4.263   7.010   1.906  0.2210 -0.2095  0.4274
  153MOL    C2348967   4.051   6.925   2.058  0.1165  0.2294 -0.1395
  153MOL    C2448968   3.982   6.823   2.126 -0.7124 -0.6094 -0.0977
  153MOL    C2548969   4.047   6.701   2.159  0.5431 -0.2990  0.0824
  153MOL    C2648970   4.278   6.534   2.303  0.4894  0.4812 -0.1928
  153MOL    H2748971   4.337   6.532   2.102  0.7664  1.6446  0.4799
  153MOL    H2848972   4.344   6.742   1.995  0.9370  0.3760  1.6648
  153MOL    H2948973   3.987   7.004   2.021  1.2273  1.1493 -0.1074
  153MOL    H3048974   3.876   6.835   2.141 -0.3927  0.9666  1.0325
  153MOL    H3148975   3.988   6.623   2.204 -0.5330 -0.4545 -1.5596
  153MOL    H3248976   4.194   6.556   2.368  2.3276  1.5735  1.8896
  153MOL    H3348977   4.307   6.432   2.327  1.3927  0.6445 -0.5359
  153MOL    C3448978   4.399   6.625   2.348 -0.3298 -0.7167  0.5808
  153MOL    C3548979   4.380   6.775   2.342 -0.6409 -0.0407 -0.2225
  153MOL    C3648980   4.265   6.834   2.389 -0.3957 -0.1774 -0.2799
  153MOL    C3748981   4.254   6.978   2.385 -0.9349  0.7400 -0.6099
  153MOL   Cl3848982   4.110   7.055   2.431  0.1479 -0.3970  0.3014
  153MOL    C3948983   4.363   7.050   2.338  0.1992 -0.5050 -0.2873
  153MOL    C4048984   4.480   6.985   2.297  0.0386  0.3984 -0.6953
  153MOL    C4148985   4.491   6.845   2.298 -0.0211  0.0538  0.0354
  153MOL    C4248986   4.461   6.577   2.483 -0.8972  0.1605 -0.0157
  153MOL    H4348987   4.471   6.611   2.268 -0.1095  1.7148  0.3224
  153MOL    H4448988   4.181   6.771   2.414 -0.8213  0.4747 -0.0757
  153MOL    H4548989   4.360   7.158   2.338  0.0283 -0.5096  0.0005
  153MOL    H4648990   4.561   7.048   2.264  0.5157  0.5488  0.7641
  153MOL    H4748991   4.579   6.798   2.257 -0.2376  0.6158 -1.0892
  153MOL    H4848992   4.527   6.656   2.521 -0.4495 -0.0400 -0.3654
  153MOL    H4948993   4.379   6.568   2.554  0.0893 -1.2918  0.9739
  153MOL    C5048994   4.536   6.439   2.474 -0.1939 -0.4252 -0.3229
  153MOL    C5148995   4.639   6.433   2.366 -0.4480 -0.2039 -0.4148
  153MOL    C5248996   4.648   6.323   2.278  0.0969 -0.3519 -0.3116
  153MOL    C5348997   4.743   6.318   2.181 -0.4946 -0.5788  0.2244
  153MOL   Cl5448998   4.737   6.181   2.081  0.2119  0.2821  0.4255
  153MOL    C5548999   4.833   6.422   2.159 -0.3363  0.0759  0.1112
  153MOL    C5649000   4.821   6.539   2.243 -0.0789  0.1776 -0.1678
  153MOL    C5749001   4.728   6.541   2.344  0.6886  0.5249 -0.3555
  153MOL    C5849002   4.602   6.404   2.613  0.4627  0.2564  0.2479
  153MOL    H5949003   4.460   6.363   2.455 -0.8461  0.4412 -1.2595
  153MOL    H6049004   4.576   6.242   2.276  0.6422 -0.8140 -1.4472
  153MOL    H6149005   4.917   6.408   2.093 -0.6376  1.4575 -0.5810
  153MOL    H6249006   4.879   6.629   2.228  2.1568 -1.3601 -1.0150
  153MOL    H6349007   4.716   6.630   2.404  0.2663 -0.1985  0.6555
  153MOL    H6449008   4.675   6.325   2.593 -0.1156  0.2637 -1.9589
  153MOL    H6549009   4.668   6.480   2.653  0.6765 -0.6141  1.5937
  153MOL    C6649010   4.504   6.357   2.729  0.5834  0.2098 -0.3545
  153MOL    C6749011   4.421   6.238   2.677 -0.0433  0.1982 -0.6540
  153MOL    C6849012   4.282   6.257   2.680  0.4518 -0.2062  0.9129
  153MOL    C6949013   4.195   6.150   2.649  0.5110  0.2828  0.2159
  153MOL   Cl7049014   4.030   6.164   2.672 -0.1540 -0.4331 -0.1675
  153MOL    C7149015   4.251   6.030   2.602 -0.3385  0.0054 -0.3362
  153MOL    C7249016   4.390   6.007   2.603 -0.7008 -0.2729  1.3040
  153MOL    C7349017   4.473   6.114   2.641 -0.0118 -0.5429  0.1428
  153MOL    C7449018   4.577   6.316   2.856 -0.9202  0.4387  0.6715
  153MOL    H7549019   4.431   6.435   2.751  0.8562  0.8242 -1.5773
  153MOL    H7649020   4.238   6.350   2.711  1.5140  1.3270 -1.9688
  153MOL    H7749021   4.190   5.944   2.577  0.0766 -0.3453 -0.1681
  153MOL    H7849022   4.427   5.907   2.585  1.8592  0.7656  0.6083
  153MOL    H7949023   4.577   6.092   2.663 -0.5621 -2.2723  1.1055
  153MOL    H8049024   4.650   6.239   2.830  2.2478  2.6615  2.4852
  153MOL    H8149025   4.644   6.396   2.888 -0.3425 -0.3015  1.3270
  153MOL    C8249026   4.484   6.261   2.979  0.5234  0.1394 -0.2112
  153MOL    C8349027   4.564   6.173   3.068  0.7944  0.0588 -0.1192
  153MOL    C8449028   4.549   6.037   3.059 -0.1934  0.9642  0.5184
  153MOL    C8549029   4.626   5.957   3.151 -0.2611 -0.5251 -0.3720
  153MOL   Cl8649030   4.601   5.787   3.156 -0.2439  0.4646 -0.1244
  153MOL    C8749031   4.717   6.014   3.239  0.3262  0.6044  0.3968
  153MOL    C8849032   4.727   6.150   3.251 -0.4182 -0.5105 -0.2835
  153MOL    C8949033   4.658   6.235   3.160 -0.1850 -0.5883 -0.0345
  153MOL    C9049034   4.386   6.364   3.040 -0.3347 -0.6970 -0.5362
  153MOL    H9149035   4.418   6.194   2.925 -1.9764  2.2267  0.1539
  153MOL    H9249036   4.478   5.978   3.003 -0.6833  0.6924  1.4176
  153MOL    H9349037   4.773   5.951   3.306 -0.9644  0.2365  1.1582
  153MOL    H9449038   4.790   6.186   3.331 -1.9661  0.8792  0.3402
  153MOL    H9549039   4.657   6.343   3.169 -1.0612 -0.6193  0.3200
  153MOL    H9649040   4.437   6.454   3.073 -0.0422 -1.5312  1.4313
  153MOL    H9749041   4.323   6.385   2.954  0.7513  3.1040 -0.4561
  153MOL    C9849042   4.286   6.326   3.156 -0.3470  0.0522  0.0576
  153MOL    C9949043   4.209   6.196   3.124  0.3441  0.1975 -0.2130
  153MOL   C10049044   4.086   6.198   3.059 -0.5435  0.0939 -0.1308
  153MOL   C10149045   4.008   6.081   3.039  0.0485  0.0133  0.0842
  153MOL  Cl10249046   3.852   6.090   2.975  0.0000  0.1407  0.2935
  153MOL   C10349047   4.055   5.955   3.090  0.7642 -0.1324  0.2475
  153MOL   C10449048   4.177   5.952   3.159 -0.6167 -0.3076  0.4662
  153MOL   C10549049   4.252   6.069   3.171  0.0230 -0.4473  0.0539
  153MOL   C10649050   4.345   6.327   3.303  0.1607  0.2515  0.5341
  153MOL   H10749051   4.219   6.412   3.161  1.9240  1.8263  0.5588
  153MOL   H10849052   4.039   6.289   3.025 -0.0139  1.3143  2.3499
  153MOL   H10949053   3.996   5.866   3.079 -0.5828  0.7690  0.0278
  153MOL   H11049054   4.205   5.858   3.205  0.9349  0.5682  1.3143
  153MOL   H11149055   4.346   6.066   3.225 -0.0681  2.9152  0.5316
  153MOL   H11249056   4.386   6.230   3.332  0.4078  1.0921  3.1281
  153MOL   H11349057   4.427   6.399   3.293  0.7832 -0.5971 -0.6676
  153MOL   C11449058   4.254   6.378   3.425 -0.2209  1.1728 -0.3480
  153MOL   C11549059   4.120   6.304   3.438  0.3104  0.1721 -0.1554
  153MOL   C11649060   4.129   6.162   3.453 -0.4422 -0.1895  0.7019
  153MOL   C11749061   4.007   6.095   3.469 -0.1560  0.0646  0.3087
  153MOL  Cl11849062   4.018   5.929   3.494  0.0926  0.3963 -0.1964
  153MOL   C11949063   3.883   6.165   3.462  0.1227  0.5239  0.0325
  153MOL   C12049064   3.877   6.304   3.435  0.8896 -0.4026 -0.2056
  153MOL   C12149065   3.996   6.374   3.427  0.2269 -0.9182 -0.4416
  153MOL   C12249066   4.327   6.394   3.554  0.7359 -0.2331  0.5329
  153MOL   H12349067   4.221   6.473   3.382  0.8450  1.5301 -0.3850
  153MOL   H12449068   4.224   6.111   3.463 -0.2130  0.2746  0.9036
  153MOL   H12549069   3.789   6.113   3.468 -0.1668  1.2405  2.5757
  153MOL   H12649070   3.783   6.355   3.424  0.4228 -0.8412  1.5128
  153MOL   H12749071   3.994   6.480   3.405  0.7567 -1.1362 -1.6136
  153MOL   H12849072   4.260   6.401   3.639  1.1147  2.1795  0.6558
  153MOL   H12949073   4.390   6.305   3.567  0.3776 -0.6362 -0.4548
  153MOL   C13049074   4.419   6.517   3.556  0.9354  0.8964  0.6698
  153MOL   C13149075   4.344   6.643   3.535 -0.3806 -0.1442  0.5245
  153MOL   C13249076   4.344   6.710   3.409 -0.2658  0.4739 -0.0818
  153MOL   C13349077   4.277   6.833   3.396 -0.4870 -0.0402 -0.6051
  153MOL  Cl13449078   4.265   6.924   3.246  0.1025  0.3178  0.4633
  153MOL   C13549079   4.204   6.880   3.507 -0.0268 -0.7599 -0.6463
  153MOL   C13649080   4.202   6.812   3.631  0.0463 -0.0645 -0.1100
  153MOL   C13749081   4.267   6.690   3.645 -1.0293 -0.4752 -0.3473
  153MOL   C13849082   4.508   6.525   3.685 -0.1020  0.2257 -0.4163
  153MOL   H13949083   4.486   6.503   3.471  2.8257 -0.3301  2.3126
  153MOL   H14049084   4.396   6.662   3.327 -1.4432 -0.2872 -0.3960
  153MOL   H14149085   4.132   6.961   3.503 -0.6719 -1.1687  1.7469
  153MOL   H14249086   4.155   6.855   3.719 -0.8163 -1.7727  0.2915
  153MOL   H14349087   4.260   6.642   3.741  1.9712  0.5406  0.4341
  153MOL   H14449088   4.538   6.629   3.693  2.1593 -0.2801 -1.7506
  153MOL   H14549089   4.465   6.514   3.784 -1.4599  1.9538 -0.8078
  153MOL   C14649090   4.640   6.443   3.668 -0.0283 -0.4276 -0.6571
  153MOL   C14749091   4.749   6.528   3.604 -0.4430  0.8128  0.3199
  153MOL   C14849092   4.793   6.488   3.473  0.9042 -0.2354  0.0888
  153MOL   C14949093   4.905   6.558   3.416 -0.4251  0.3790 -0.0734
  153MOL  Cl15049094   4.977   6.515   3.264  0.2699 -0.0351  0.6190
  153MOL   C15149095   4.957   6.672   3.480  0.3488  0.2815 -0.4350
  153MOL   C15249096   4.906   6.712   3.605  0.1844 -0.9580 -0.2567
  153MOL   C15349097   4.805   6.638   3.668  0.4348 -0.2928  0.6873
  153MOL   C15449098   4.687   6.377   3.801  0.2886 -0.0520  0.0959
  153MOL   H15549099   4.620   6.352   3.611  0.9606 -0.8116 -0.3835
  153MOL   H15649100   4.766   6.394   3.427 -1.9680  0.4960  0.1893
  153MOL   H15749101   5.046   6.719   3.442  0.1205  1.8538  0.9047
  153MOL   H15849102   4.946   6.802   3.649 -0.1408 -0.5916 -0.7069
  153MOL   H15949103   4.764   6.671   3.762  0.2570 -0.9018  0.8294
  153MOL   H16049104   4.786   6.341   3.774  0.0106 -0.1374 -0.8062
  153MOL   H16149105   4.704   6.449   3.882 -0.4343  1.5897 -1.1676
  153MOL   C16249106   4.594   6.263   3.846 -0.6379  0.1227 -0.1628
  153MOL   C16349107   4.613   6.136   3.761  0.2286 -0.4911  0.3400
  153MOL   C16449108   4.506   6.085   3.689 -0.4069  1.0071  0.6685
  153MOL   C16549109   4.531   5.973   3.601 -0.1683 -0.0179  0.3362
  153MOL  Cl16649110   4.410   5.910   3.494 -0.0079 -0.0431 -0.4201
  153MOL   C16749111   4.658   5.913   3.588 -0.1214  0.1512  0.1753
  153MOL   C16849112   4.766   5.970   3.657 -0.3465 -0.2078  0.1621
  153MOL   C16949113   4.741   6.080   3.748  0.7828  0.5243 -0.3347
  153MOL   C17049114   4.597   6.223   3.996  1.0029  0.7353  0.1422
  153MOL   H17149115   4.491   6.296   3.839 -1.2449 -1.4745  1.0187
  153MOL   H17249116   4.410   6.133   3.699 -0.7784 -0.1369  2.6005
  153MOL   H17349117   4.667   5.818   3.538 -0.3702 -0.2337  0.8545
  153MOL   H17449118   4.865   5.928   3.646  0.1956  0.8279  0.9504
  153MOL   H17549119   4.818   6.124   3.810  1.3589 -0.1312 -0.5725
  153MOL   H17649120   4.519   6.149   4.012  2.1200 -1.2333 -3.0249
  153MOL   H17749121   4.692   6.175   4.018 -0.1856 -1.3839  0.7478
  153MOL   C17849122   4.579   6.326   4.104 -0.2486 -0.0199 -0.9696
  153MOL   C17949123   4.456   6.416   4.098  0.0204 -0.0930 -0.1047
  153MOL   C18049124   4.473   6.557   4.112 -0.5177  0.3973  0.0094
  153MOL   C18149125   4.362   6.644   4.110 -0.7485  0.0105 -0.0462
  153MOL  Cl18249126   4.376   6.820   4.127 -0.0110  0.0963 -0.1268
  153MOL   C18349127   4.230   6.588   4.098 -0.1047 -0.7208 -0.4651
  153MOL   C18449128   4.213   6.454   4.085  0.1839  0.4918  0.2299
  153MOL   C18549129   4.327   6.370   4.086  0.4473 -0.2455  0.2295
  153MOL   C18649130   4.591   6.261   4.242  0.2524  0.5837 -0.5068
  153MOL   H18749131   4.666   6.390   4.090  0.3179 -0.8559 -1.3454
  153MOL   H18849132   4.578   6.575   4.127 -0.5153  0.5026 -0.1313
  153MOL   H18949133   4.137   6.643   4.103  0.2412 -0.1945  0.1469
  153MOL   H19049134   4.113   6.413   4.079  0.9067 -1.3068  0.2918
  153MOL   H19149135   4.311   6.263   4.096 -3.5894  0.2107 -0.3574
  153MOL   H19249136   4.529   6.315   4.314  0.3328  2.5728 -1.9021
  153MOL   H19349137   4.537   6.166   4.234  0.7640  0.5288 -4.1026
  153MOL   C19449138   4.735   6.245   4.299  0.3722  0.3513  0.0677
  153MOL   C19549139   4.816   6.376   4.323  0.1013 -0.1135  0.9287
  153MOL   C19649140   4.956   6.370   4.310 -0.2219 -0.0832 -0.0452
  153MOL   C19749141   5.031   6.486   4.327  0.0106  0.2198  0.3198
  153MOL  Cl19849142   5.201   6.481   4.293  0.2039 -0.2905  0.0317
  153MOL   C19949143   4.963   6.603   4.360  0.0653  0.6436 -0.2176
  153MOL   C20049144   4.825   6.607   4.381 -0.5466  0.7835 -1.1535
  153MOL   C20149145   4.750   6.489   4.368  0.3120  0.2147  0.6529
  153MOL   C20249146   4.735   6.152   4.423 -0.0372  0.8083  0.1036
  153MOL   H20349147   4.801   6.197   4.227  2.8391  1.7075  1.3221
  153MOL   H20449148   5.016   6.290   4.269  0.6847 -0.8761  2.6906
  153MOL   H20549149   5.027   6.689   4.372  2.1767 -1.0505  1.0838
  153MOL   H20649150   4.776   6.701   4.402 -0.1127  1.1725 -1.8878
  153MOL   H20749151   4.643   6.484   4.377  0.4908 -1.8513  1.9059
  153MOL   H20849152   4.841   6.144   4.448  0.2994  2.7698 -0.6321
  153MOL   H20949153   4.682   6.202   4.504 -1.7537  1.0990 -1.1576
  153MOL   C21049154   4.694   6.005   4.400  0.0233  0.1486 -0.1216
  153MOL   C21149155   4.754   5.948   4.277  0.1808  0.1254  1.2285
  153MOL   C21249156   4.890   5.919   4.262 -0.8485  0.5394 -0.2368
  153MOL   C21349157   4.942   5.867   4.144  0.0141 -0.1775 -0.6017
  153MOL  Cl21449158   5.110   5.836   4.130 -0.4330 -0.6285 -0.2768
  153MOL   C21549159   4.858   5.849   4.034  0.0344  0.6425  0.3355
  153MOL   C21649160   4.723   5.883   4.047  0.1003 -0.1016 -0.1698
  153MOL   C21749161   4.666   5.926   4.164  0.2577  0.0056 -0.5184
  153MOL   C21849162   4.724   5.917   4.518 -0.0844 -0.6185  0.1362
  153MOL   H21949163   4.586   5.995   4.389 -0.1456  2.3192 -0.7123
  153MOL   H22049164   4.965   5.935   4.337 -0.5316 -0.5021 -0.3254
  153MOL   H22149165   4.902   5.792   3.954  0.7220  1.0714  0.3930
  153MOL   H22249166   4.659   5.879   3.960  1.3627  3.1127 -1.3141
  153MOL   H22349167   4.562   5.956   4.168  0.4197  0.4186  1.1239
  153MOL   H22449168   4.831   5.900   4.528  0.1904  1.0513  0.3240
  153MOL   H22549169   4.694   5.970   4.609 -1.0154  1.1705 -1.1877
  153MOL   C22649170   4.651   5.778   4.527 -0.3933  0.2296  0.6463
  153MOL   C22749171   4.707   5.673   4.434 -0.5691 -0.5674  0.3421
  153MOL   C22849172   4.648   5.654   4.303 -0.6873  0.8558 -0.6086
  153MOL   C22949173   4.702   5.562   4.215  0.8050 -0.9120  0.0917
  153MOL  Cl23049174   4.632   5.539   4.056  0.0149  0.2452 -0.3350
  153MOL   C23149175   4.826   5.498   4.244 -0.1842  0.3338  0.5312
  153MOL   C23249176   4.887   5.513   4.370 -0.3610 -0.2460 -0.2087
  153MOL   C23349177   4.828   5.605   4.461 -0.5077  0.0607  0.1022
  153MOL   C23449178   4.647   5.723   4.679  0.3198  0.9843  0.2472
  153MOL   H23549179   4.553   5.797   4.483 -0.5846 -0.1883  0.8803
  153MOL   H23649180   4.555   5.705   4.282 -1.4967 -0.7965 -1.1273
  153MOL   H23749181   4.859   5.427   4.170 -1.6341 -0.3593  0.5213
  153MOL   H23849182   4.983   5.470   4.393 -0.0468  0.9638  0.7622
  153MOL   H23949183   4.880   5.634   4.551  0.8266 -2.0732  0.0471
  153MOL   H24049184   4.609   5.621   4.681 -3.3266  2.1539 -2.7980
  153MOL   H24149185   4.749   5.720   4.716  0.8778  2.2452 -1.1254
  153MOL   C24249186   4.556   5.808   4.778  0.1995 -0.1539 -0.4672
  153MOL   C24349187   4.420   5.843   4.708 -0.2074 -0.0131 -0.0155
  153MOL   C24449188   4.311   5.749   4.697  0.6934 -0.0882  0.0604
  153MOL   C24549189   4.195   5.791   4.631  0.2215 -0.9532 -0.4281
  153MOL  Cl24649190   4.067   5.677   4.607  0.0395 -0.3067  0.0009
  153MOL   C24749191   4.182   5.921   4.576  0.0383 -0.2992 -0.1377
  153MOL   C24849192   4.290   6.009   4.581  0.2715 -0.4922  0.1215
  153MOL   C24949193   4.405   5.971   4.652 -0.9169 -0.0281 -0.0946
  153MOL   C25049194   4.525   5.738   4.918 -0.0612 -0.4675 -0.4629
  153MOL   H25149195   4.597   5.907   4.798 -3.8904  1.8666 -1.5234
  153MOL   H25249196   4.327   5.648   4.733  0.4586  0.7274  2.4835
  153MOL   H25349197   4.093   5.956   4.526  1.0162  3.4161  0.5706
  153MOL   H25449198   4.279   6.112   4.550 -0.2598 -0.8283 -0.8120
  153MOL   H25549199   4.484   6.044   4.661  0.1816 -1.0683 -1.0200
  153MOL   H25649200   4.478   5.812   4.982  0.0427 -1.6442  0.9963
  153MOL   H25749201   4.444   5.665   4.913 -1.6176  1.2322 -0.7210
  153MOL   C25849202   4.650   5.679   4.992 -0.1243 -0.5137  0.0237
  153MOL   C25949203   4.759   5.779   5.008  0.0664  0.0706 -0.1566
  153MOL   C26049204   4.748   5.904   5.069 -0.0849  0.1379  0.0887
  153MOL   C26149205   4.866   5.977   5.096 -0.0506  1.0998  0.1639
  153MOL  Cl26249206   4.858   6.122   5.187  0.1422  0.0291  0.1712
  153MOL   C26349207   4.996   5.928   5.055  0.1854  0.0469 -0.3019
  153MOL   C26449208   5.003   5.800   5.000 -1.3053  0.2913  0.0480
  153MOL   C26549209   4.887   5.733   4.969  0.3045  0.2787 -0.6600
  153MOL   C26649210   4.614   5.622   5.131 -0.4001  0.1820  0.1950
  153MOL   H26749211   4.688   5.602   4.925 -1.2386 -0.8953 -0.1942
  153MOL   H26849212   4.657   5.941   5.116  1.4526  0.3568  3.0141
  153MOL   H26949213   5.084   5.977   5.094 -1.7285  1.9141  1.8116
  153MOL   H27049214   5.095   5.753   4.969 -1.5527  0.7338 -1.4510
  153MOL   H27149215   4.887   5.638   4.918  0.5435 -1.1355  1.8731
  153MOL   H27249216   4.661   5.683   5.208 -1.6247 -1.3333  2.2227
  153MOL   H27349217   4.506   5.637   5.145 -0.2541 -0.0530  1.6873
  153MOL   C27449218   4.629   5.472   5.147 -0.2513  0.7614 -0.4315
  153MOL   C27549219   4.774   5.434   5.158 -0.1670 -0.3946 -0.8586
  153MOL   C27649220   4.830   5.348   5.053 -0.2631  0.4929 -0.1130
  153MOL   C27749221   4.962   5.304   5.063 -0.0242  0.3087  0.0013
  153MOL  Cl27849222   5.016   5.181   4.957 -0.0290  0.3106  0.3024
  153MOL   C27949223   5.037   5.340   5.173  0.2235  0.6721 -0.5163
  153MOL   C28049224   4.981   5.428   5.273 -0.0187  0.1019 -0.1471
  153MOL   C28149225   4.854   5.481   5.266 -0.0600  0.2536 -0.0481
  153MOL   C28249226   4.542   5.405   5.254  0.5289  0.1910  0.0604
  153MOL   H28349227   4.584   5.433   5.056  1.9837 -0.6290 -0.9902
  153MOL   H28449228   4.763   5.308   4.979  0.2466  1.4019 -1.0748
  153MOL   H28549229   5.135   5.297   5.188  0.0440  0.2844 -0.4278
  153MOL   H28649230   5.034   5.442   5.366  1.6940  0.2742 -1.1383
  153MOL   H28749231   4.809   5.532   5.349  0.5517 -0.5048  0.7600
  153MOL   H28849232   4.594   5.311   5.273 -1.4302 -0.7084  1.2146
  153MOL   H28949233   4.550   5.465   5.345  0.4500  1.1925 -0.5866
  153MOL   C29049234   4.394   5.389   5.220 -0.7060 -0.0056  0.1594
  153MOL   C29149235   4.375   5.312   5.089 -0.3131  0.0925 -0.7506
  153MOL   C29249236   4.419   5.175   5.073  0.0508  0.1288 -0.8712
  153MOL   C29349237   4.402   5.112   4.953 -0.0843 -0.3370 -0.0988
  153MOL  Cl29449238   4.455   4.953   4.920 -0.3434 -0.2614  0.2792
  153MOL   C29549239   4.332   5.179   4.848 -0.3173  0.2068  0.0984
  153MOL   C29649240   4.294   5.315   4.863 -0.6257 -0.2839  0.0842
  153MOL   C29749241   4.314   5.381   4.983  0.3495 -0.6184 -0.2511
  153MOL   C29849242   4.327   5.308   5.337  0.2221  0.3143 -0.1949
  153MOL   H29949243   4.342   5.484   5.210  1.6655  1.6412  2.5768
  153MOL   H30049244   4.467   5.128   5.157  0.8703 -0.1648 -1.5075
  153MOL   H30149245   4.316   5.131   4.753 -1.6822  0.9806 -0.0758
  153MOL   H30249246   4.253   5.370   4.779  0.7014  0.1051 -0.3338
  153MOL   H30349247   4.283   5.485   4.985 -0.4693 -0.8572 -0.6137
  153MOL   H30449248   4.382   5.217   5.358 -0.0057  0.1877 -0.1447
  153MOL   H30549249   4.336   5.368   5.428 -0.8667 -2.0108  1.4829
  153MOL   C30649250   4.172   5.289   5.318 -0.1773 -0.4270 -1.0293
  153MOL   C30749251   4.153   5.140   5.308 -0.1130  0.0155 -0.0998
  153MOL   C30849252   4.153   5.050   5.414 -0.1597 -0.0697  0.5699
  153MOL   C30949253   4.157   4.915   5.399  0.3100 -0.0629 -0.0270
  153MOL  Cl31049254   4.178   4.814   5.536  0.3004  0.6590  0.1805
  153MOL   C31149255   4.149   4.859   5.269 -0.1774 -0.6358 -1.0117
  153MOL   C31249256   4.142   4.949   5.161 -0.5001  0.8838  1.0793
  153MOL   C31349257   4.145   5.090   5.174 -0.1765  0.8466  0.1218
  153MOL   C31449258   4.088   5.352   5.436 -0.2929  0.6710 -0.1824
  153MOL   H31549259   4.126   5.327   5.226 -1.2300  0.8842  0.0087
  153MOL   H31649260   4.161   5.101   5.509 -1.2364  1.8789 -0.3565
  153MOL   H31749261   4.150   4.754   5.244  0.5636 -0.9548  0.3153
  153MOL   H31849262   4.145   4.898   5.066  0.9829  0.0932  1.5449
  153MOL   H31949263   4.135   5.154   5.087 -0.4302 -0.5658 -0.8961
  153MOL   H32049264   4.095   5.291   5.526 -0.1340  1.3338  0.2583
  153MOL   H32149265   4.111   5.457   5.456  0.5809  0.9080 -2.2673
  153MOL   H32249266   3.982   5.334   5.423 -0.3591 -0.9500  2.3820
  154MOL     C149267   5.595   3.563   5.695  0.9026 -0.1616 -0.9712
  154MOL     C249268   5.611   3.555   5.541 -0.2233 -0.0145 -0.1356
  154MOL     C349269   5.537   3.644   5.469 -0.1601 -0.1231  0.1952
  154MOL     C449270   5.542   3.635   5.325  0.3726 -0.4827 -1.1827
  154MOL    Cl549271   5.454   3.746   5.224 -0.0022 -0.2557  0.3478
  154MOL     C649272   5.627   3.541   5.265 -0.3026 -0.0711  0.0376
  154MOL     C749273   5.695   3.451   5.341 -0.2257  0.3175  0.0063
  154MOL     C849274   5.684   3.456   5.475 -0.3185 -0.0952  0.0386
  154MOL     C949275   5.683   3.680   5.746 -0.1803  0.7020  0.0563
  154MOL    H1049276   5.623   3.471   5.746 -0.9202  0.4531  1.2109
  154MOL    H1149277   5.466   3.711   5.515  1.2051  1.9350 -0.6335
  154MOL    H1249278   5.634   3.538   5.157 -0.8528  0.2640 -0.0095
  154MOL    H1349279   5.746   3.365   5.298 -0.4415  1.1670 -2.0039
  154MOL    H1449280   5.734   3.381   5.534 -0.3552  0.4306  0.7441
  154MOL    H1549281   5.788   3.667   5.719  0.5484  1.0298  2.5862
  154MOL    H1649282   5.645   3.772   5.702  0.1739  0.1183 -1.5197
  154MOL    H1749283   5.491   3.591   5.710  1.5378  1.6439  0.1457
  154MOL    C1849284   5.676   3.685   5.896 -0.4098 -0.0914 -0.4345
  154MOL    C1949285   5.768   3.787   5.955 -0.3709 -0.9171  0.3245
  154MOL    C2049286   5.746   3.923   5.931  0.4589 -0.4384 -0.2635
  154MOL    C2149287   5.828   4.025   5.984  0.3451  0.0254  0.3094
  154MOL   Cl2249288   5.790   4.186   5.941  0.1414 -0.0806  0.2709
  154MOL    C2349289   5.940   3.985   6.059  0.4480 -0.6214  0.0721
  154MOL    C2449290   5.960   3.850   6.087  0.8268 -0.2361 -0.3812
  154MOL    C2549291   5.877   3.751   6.033  0.3898 -0.3343  0.4731
  154MOL    C2649292   5.537   3.696   5.966 -0.0610  0.2989 -0.2973
  154MOL    H2749293   5.720   3.590   5.928 -1.0131 -1.0229 -2.2862
  154MOL    H2849294   5.661   3.954   5.871 -0.3437 -0.2956  0.9160
  154MOL    H2949295   6.013   4.056   6.094 -0.3791  0.0351  0.4912
  154MOL    H3049296   6.039   3.819   6.154  0.2024  0.4237  0.6680
  154MOL    H3149297   5.902   3.648   6.056 -1.6537 -0.9932 -0.0858
  154MOL    H3249298   5.548   3.761   6.053 -1.6252 -0.4984  0.5261
  154MOL    H3349299   5.469   3.759   5.910  0.3891  0.1979 -0.9600
  154MOL    C3449300   5.472   3.567   6.013 -0.2786 -0.9053  0.2414
  154MOL    C3549301   5.564   3.489   6.116 -0.4248 -0.0529  0.3822
  154MOL    C3649302   5.631   3.548   6.224 -1.0962  0.4768  0.1689
  154MOL    C3749303   5.719   3.480   6.312  0.0779  0.1187  0.4994
  154MOL   Cl3849304   5.805   3.560   6.436 -0.1443  0.2692 -0.1387
  154MOL    C3949305   5.740   3.341   6.289  0.6057  0.1353  0.5072
  154MOL    C4049306   5.671   3.272   6.186 -0.2342  0.2735  0.6696
  154MOL    C4149307   5.582   3.349   6.103 -0.3621  0.1762  0.0525
  154MOL    C4249308   5.339   3.585   6.090  0.5438  0.3640 -0.3610
  154MOL    H4349309   5.450   3.507   5.925  0.3174 -2.2857  1.0165
  154MOL    H4449310   5.595   3.648   6.244 -0.8098  1.0304 -1.9929
  154MOL    H4549311   5.803   3.280   6.352  1.0961 -0.1954 -0.2893
  154MOL    H4649312   5.697   3.167   6.174  1.3725  0.7696 -0.2749
  154MOL    H4749313   5.515   3.302   6.033 -0.5941  0.3795  0.1393
  154MOL    H4849314   5.305   3.485   6.117  0.3595  0.3860 -0.5097
  154MOL    H4949315   5.349   3.644   6.181  2.4374  0.9884 -0.9399
  154MOL    C5049316   5.228   3.658   6.009  0.0575 -0.8605 -0.5348
  154MOL    C5149317   5.204   3.594   5.872  0.2643  0.3338  0.3808
  154MOL    C5249318   5.200   3.451   5.849  0.7500  0.5908 -0.1721
  154MOL    C5349319   5.186   3.396   5.719  0.0265 -0.5577  0.2834
  154MOL   Cl5449320   5.195   3.228   5.690 -0.1007 -0.1999  0.0215
  154MOL    C5549321   5.184   3.480   5.606 -0.2134  0.7201  0.8972
  154MOL    C5649322   5.180   3.620   5.624  0.1730 -0.4605 -0.4058
  154MOL    C5749323   5.190   3.673   5.755 -0.1081 -0.7213  0.7752
  154MOL    C5849324   5.093   3.664   6.085 -0.2624  0.0898  1.5688
  154MOL    H5949325   5.256   3.761   5.988  1.0565 -0.7558  1.1895
  154MOL    H6049326   5.200   3.376   5.926 -0.1717 -0.8913 -1.5770
  154MOL    H6149327   5.180   3.440   5.506 -0.1156 -1.9862  1.9201
  154MOL    H6249328   5.184   3.688   5.540  0.7687 -1.2080 -0.9965
  154MOL    H6349329   5.202   3.779   5.768 -1.6307 -0.7526  2.6532
  154MOL    H6449330   5.011   3.634   6.020  0.6127 -1.0555  0.9703
  154MOL    H6549331   5.092   3.579   6.153  0.3126 -0.4179  0.9529
  154MOL    C6649332   5.064   3.803   6.141  0.2898 -0.4692 -0.1501
  154MOL    C6749333   5.035   3.909   6.032 -0.0782 -0.5377  0.5038
  154MOL    C6849334   5.081   4.041   6.051  0.1336  0.1604  0.2810
  154MOL    C6949335   5.034   4.144   5.975 -0.4819  0.0164  0.2472
  154MOL   Cl7049336   5.104   4.300   5.990  0.3442  0.2845  0.1159
  154MOL    C7149337   4.943   4.120   5.872 -0.6956  0.8778  0.1857
  154MOL    C7249338   4.900   3.994   5.850  0.5955 -0.0160 -0.4200
  154MOL    C7349339   4.948   3.885   5.924  0.0678  1.5441 -0.3535
  154MOL    C7449340   4.948   3.801   6.250  0.1950 -0.6175  0.6770
  154MOL    H7549341   5.154   3.838   6.191  0.7002  0.4341 -1.4746
  154MOL    H7649342   5.152   4.069   6.127 -0.3231 -1.6356  1.4168
  154MOL    H7749343   4.901   4.197   5.809  2.1587  1.9266 -0.5303
  154MOL    H7849344   4.834   3.982   5.766  0.6029 -1.1328 -0.2729
  154MOL    H7949345   4.918   3.783   5.904  2.3077  1.1500 -1.8529
  154MOL    H8049346   4.925   3.898   6.294 -0.9582 -0.3730 -0.4454
  154MOL    H8149347   4.855   3.769   6.203 -0.6758  1.5935  0.8300
  154MOL    C8249348   4.967   3.701   6.369  0.0504 -0.6452 -0.0876
  154MOL    C8349349   5.109   3.693   6.420  0.1581  0.1804  0.0842
  154MOL    C8449350   5.170   3.564   6.414 -0.3819  0.5032 -0.7743
  154MOL    C8549351   5.308   3.551   6.452 -0.6455  0.0403  0.4794
  154MOL   Cl8649352   5.376   3.393   6.437 -0.0134 -0.1083  0.5131
  154MOL    C8749353   5.381   3.664   6.491 -0.0748 -0.1676  0.5040
  154MOL    C8849354   5.318   3.789   6.500  0.4931 -0.3274 -0.0889
  154MOL    C8949355   5.180   3.803   6.467  0.0084  0.1449 -0.9061
  154MOL    C9049356   4.867   3.723   6.488 -0.0561  0.5011  0.3188
  154MOL    H9149357   4.935   3.606   6.326  1.2734 -0.5298 -1.2927
  154MOL    H9249358   5.116   3.474   6.391  1.3441 -1.5263  2.6649
  154MOL    H9349359   5.489   3.657   6.499  0.3509  2.6322 -1.8918
  154MOL    H9449360   5.371   3.881   6.521 -0.5094  0.1206  0.4919
  154MOL    H9549361   5.141   3.904   6.470 -0.9995 -0.2630  2.4920
  154MOL    H9649362   4.917   3.789   6.560  0.5827 -0.7924  1.0704
  154MOL    H9749363   4.777   3.772   6.450 -0.9021 -0.0097  1.5897
  154MOL    C9849364   4.816   3.590   6.555 -0.5576  0.0785  0.6272
  154MOL    C9949365   4.845   3.605   6.705 -0.6203  0.0761 -0.1191
  154MOL   C10049366   4.979   3.590   6.763 -0.6248 -0.4953 -0.0475
  154MOL   C10149367   4.999   3.621   6.899 -0.2316 -0.2071  0.0730
  154MOL  Cl10249368   5.161   3.619   6.969 -0.1638  0.2529 -0.1090
  154MOL   C10349369   4.894   3.657   6.978 -0.4081  0.1009  0.0657
  154MOL   C10449370   4.766   3.675   6.930  0.2120 -1.2857  0.8994
  154MOL   C10549371   4.738   3.651   6.790  0.2544 -0.6755 -0.6611
  154MOL   C10649372   4.677   3.540   6.524  0.6534 -0.4730  0.3110
  154MOL   H10749373   4.892   3.515   6.533 -0.3788  0.6941 -0.9597
  154MOL   H10849374   5.057   3.565   6.694 -2.7391 -1.8542 -2.0091
  154MOL   H10949375   4.905   3.684   7.082  2.5833  1.3082 -0.4871
  154MOL   H11049376   4.688   3.702   7.000  1.3675 -0.3226  1.8447
  154MOL   H11149377   4.641   3.674   6.748  1.3507  1.4381 -2.2049
  154MOL   H11249378   4.646   3.467   6.599  1.8159 -1.4740 -0.1604
  154MOL   H11349379   4.609   3.624   6.531  0.3194 -0.9118  2.6325
  154MOL   C11449380   4.657   3.443   6.403 -0.3941  0.0613 -0.4777
  154MOL   C11549381   4.764   3.333   6.406 -0.1222  0.5512  1.0300
  154MOL   C11649382   4.884   3.335   6.322  0.0694  0.2856 -0.3495
  154MOL   C11749383   4.982   3.237   6.341  0.6375 -0.4029 -0.2488
  154MOL  Cl11849384   5.124   3.241   6.248  0.1813  0.2334 -0.0095
  154MOL   C11949385   4.967   3.135   6.442  0.2366 -0.0432  0.0272
  154MOL   C12049386   4.859   3.146   6.533  0.4078 -0.3276  0.1948
  154MOL   C12149387   4.752   3.241   6.507 -0.0369 -0.3540  0.1671
  154MOL   C12249388   4.507   3.399   6.410  0.0117 -0.9392 -0.7344
  154MOL   H12349389   4.679   3.508   6.318 -0.5569 -2.4616 -2.5089
  154MOL   H12449390   4.903   3.401   6.239  0.9377  1.1170  0.4996
  154MOL   H12549391   5.044   3.062   6.461 -1.3265 -1.0109  2.9869
  154MOL   H12649392   4.844   3.079   6.617 -0.1395  1.2175  1.3507
  154MOL   H12749393   4.669   3.251   6.575 -0.1143 -0.1588  0.0446
  154MOL   H12849394   4.498   3.342   6.502 -0.4550 -1.7091 -1.2511
  154MOL   H12949395   4.440   3.484   6.426 -0.0339 -1.4827  2.0798
  154MOL   C13049396   4.464   3.308   6.293 -0.1993 -0.1860  0.0461
  154MOL   C13149397   4.388   3.184   6.341  0.0312 -0.2684  0.0105
  154MOL   C13249398   4.435   3.059   6.292 -0.0562  0.5062 -0.6342
  154MOL   C13349399   4.373   2.939   6.333 -0.3742  0.1070  0.0479
  154MOL  Cl13449400   4.414   2.781   6.266 -0.1202 -0.0433 -0.0424
  154MOL   C13549401   4.261   2.944   6.423 -0.1972  0.1508  0.7808
  154MOL   C13649402   4.216   3.071   6.467  0.0348 -0.2730 -0.0467
  154MOL   C13749403   4.280   3.189   6.429 -0.3683 -0.6631 -0.3555
  154MOL   C13849404   4.397   3.397   6.184 -0.5773  0.8496  0.2096
  154MOL   H13949405   4.553   3.262   6.249 -0.6678 -2.4731  1.4243
  154MOL   H14049406   4.514   3.054   6.219  1.3036  0.3223  0.8316
  154MOL   H14149407   4.207   2.863   6.470  1.8823 -0.9161  1.3454
  154MOL   H14249408   4.143   3.079   6.546 -0.3997 -0.4169 -0.4354
  154MOL   H14349409   4.250   3.283   6.471  1.2515 -0.9515  1.4874
  154MOL   H14449410   4.340   3.334   6.116  1.9245 -0.7127 -0.5074
  154MOL   H14549411   4.328   3.470   6.226 -1.3336  1.8356 -2.6354
  154MOL   C14649412   4.498   3.484   6.091 -0.3690 -0.1387 -0.7133
  154MOL   C14749413   4.614   3.413   6.026  0.2328 -0.1342  0.3953
  154MOL   C14849414   4.599   3.287   5.964 -0.4028  0.3535  0.4611
  154MOL   C14949415   4.699   3.211   5.893  0.1282 -0.0795 -0.0919
  154MOL  Cl15049416   4.657   3.078   5.801 -0.3149 -0.0743 -0.5421
  154MOL   C15149417   4.828   3.274   5.893  0.3971  0.1711  0.5559
  154MOL   C15249418   4.856   3.394   5.962 -0.5492 -0.1388  0.5630
  154MOL   C15349419   4.748   3.460   6.021 -0.0468 -0.2267 -0.0956
  154MOL   C15449420   4.429   3.570   5.985 -0.1768 -0.4913 -0.2789
  154MOL   H15549421   4.539   3.557   6.161  0.4884  0.3016 -1.6596
  154MOL   H15649422   4.500   3.243   5.970  0.1779 -1.0886 -0.1067
  154MOL   H15749423   4.906   3.228   5.834 -0.2060  1.2396 -1.1055
  154MOL   H15849424   4.955   3.437   5.954 -0.8738  0.1913 -2.2258
  154MOL   H15949425   4.760   3.560   6.061  0.0079  0.0124 -0.7014
  154MOL   H16049426   4.514   3.608   5.929 -0.2452 -1.9843 -1.4555
  154MOL   H16149427   4.365   3.506   5.924 -1.3739  0.5165 -0.0966
  154MOL   C16249428   4.353   3.693   6.018  0.5385  0.2850  0.9406
  154MOL   C16349429   4.423   3.763   6.133  0.2845  0.3609 -0.4676
  154MOL   C16449430   4.532   3.849   6.112  0.4680  0.0682 -0.0003
  154MOL   C16549431   4.592   3.923   6.214 -0.8428  0.5111 -0.8032
  154MOL  Cl16649432   4.731   4.025   6.183  0.1352 -0.2137 -0.1437
  154MOL   C16749433   4.543   3.914   6.349 -0.3928 -0.2413 -0.3636
  154MOL   C16849434   4.429   3.830   6.368 -0.1948  0.3194  0.8134
  154MOL   C16949435   4.371   3.756   6.263  0.0303  0.6500  0.2277
  154MOL   C17049436   4.310   3.792   5.893  0.9410  0.2296  0.0376
  154MOL   H17149437   4.258   3.656   6.057 -0.8974  0.8695 -1.8793
  154MOL   H17249438   4.578   3.864   6.015  0.0207  0.6646 -0.1284
  154MOL   H17349439   4.579   3.962   6.439 -0.8783  1.5876 -1.1238
  154MOL   H17449440   4.389   3.811   6.467 -0.9525 -2.0732  0.0775
  154MOL   H17549441   4.280   3.700   6.278  0.4114 -0.1779 -0.5281
  154MOL   H17649442   4.243   3.727   5.836  1.2522 -2.0332  2.1666
  154MOL   H17749443   4.246   3.865   5.941  0.0691  1.1853 -2.4746
  154MOL   C17849444   4.403   3.871   5.801 -0.0477 -0.4865 -0.1844
  154MOL   C17949445   4.500   3.773   5.728  0.3444  0.0422 -0.1318
  154MOL   C18049446   4.447   3.671   5.642  0.2742  0.0589 -0.5418
  154MOL   C18149447   4.525   3.571   5.587  0.5553 -0.7503 -0.2187
  154MOL  Cl18249448   4.458   3.464   5.470  0.5264  0.2999  0.4761
  154MOL   C18349449   4.663   3.583   5.605 -0.0282 -0.1397  0.4145
  154MOL   C18449450   4.724   3.671   5.700  0.0282 -0.0085 -0.0368
  154MOL   C18549451   4.642   3.772   5.756  1.0019  0.1014 -0.6541
  154MOL   C18649452   4.331   3.957   5.695 -0.5176  0.4773  0.0204
  154MOL   H18749453   4.464   3.935   5.864  1.3121 -2.7568  0.8816
  154MOL   H18849454   4.343   3.679   5.614  0.9435  0.8264 -2.9435
  154MOL   H18949455   4.719   3.503   5.559 -1.9772 -0.6720 -1.1043
  154MOL   H19049456   4.829   3.653   5.719 -0.1613 -0.0582  0.9676
  154MOL   H19149457   4.688   3.842   5.824  0.2784  0.3343 -0.4063
  154MOL   H19249458   4.410   3.988   5.627 -1.1463  0.3474 -0.7858
  154MOL   H19349459   4.260   3.890   5.646 -0.9578  1.7577 -1.1585
  154MOL   C19449460   4.256   4.082   5.751 -0.9550  0.5958  0.0037
  154MOL   C19549461   4.351   4.173   5.820 -0.1226 -0.4161 -0.0122
  154MOL   C19649462   4.311   4.225   5.945  0.6080  0.6825  1.0163
  154MOL   C19749463   4.404   4.303   6.022  0.2324  0.0544 -0.1048
  154MOL  Cl19849464   4.332   4.374   6.162 -0.0118 -0.1091 -0.1999
  154MOL   C19949465   4.535   4.312   5.986  0.7647 -0.3438  0.7392
  154MOL   C20049466   4.567   4.259   5.859 -0.9104  0.0453 -0.0748
  154MOL   C20149467   4.478   4.201   5.769 -0.0392  0.0329  0.4245
  154MOL   C20249468   4.164   4.153   5.645  0.0750 -0.6036  0.8574
  154MOL   H20349469   4.197   4.042   5.834  0.6789  0.8206  1.3052
  154MOL   H20449470   4.215   4.192   5.984  0.3896  0.4205  0.2731
  154MOL   H20549471   4.618   4.366   6.027  0.2199  1.0052  0.0936
  154MOL   H20649472   4.665   4.275   5.816 -1.1316  0.2980 -0.4861
  154MOL   H20749473   4.514   4.166   5.674  2.5478  0.1997  1.2994
  154MOL   H20849474   4.104   4.227   5.698 -1.3107 -0.4778 -0.8182
  154MOL   H20949475   4.233   4.185   5.567 -1.1622 -2.3759 -1.0275
  154MOL   C21049476   4.058   4.062   5.580  0.2652  0.3673 -0.8586
  154MOL   C21149477   3.985   3.986   5.691 -0.4515 -0.0242  0.6005
  154MOL   C21249478   3.920   4.060   5.794  0.1675 -0.0025  0.4077
  154MOL   C21349479   3.841   3.987   5.883 -0.8229  0.3805 -0.0992
  154MOL  Cl21449480   3.723   4.071   5.977  0.2436  0.0523  0.0190
  154MOL   C21549481   3.847   3.845   5.885  0.1406 -0.0892  0.4422
  154MOL   C21649482   3.924   3.768   5.794  0.0786  0.4469 -0.5255
  154MOL   C21749483   3.986   3.845   5.690 -0.0503 -0.4701  0.5193
  154MOL   C21849484   3.956   4.121   5.476 -0.7860 -0.3563 -0.0962
  154MOL   H21949485   4.120   3.991   5.527 -1.7252 -0.6104 -1.9160
  154MOL   H22049486   3.917   4.167   5.800 -0.8705  0.1564 -2.2717
  154MOL   H22149487   3.776   3.801   5.954 -1.3159 -1.1131 -1.6720
  154MOL   H22249488   3.930   3.660   5.791 -4.6522  0.0974 -1.0002
  154MOL   H22349489   4.030   3.784   5.612 -0.2327  0.7340 -0.5445
  154MOL   H22449490   3.913   4.207   5.528  1.0139  0.3306  0.3010
  154MOL   H22549491   4.016   4.171   5.401 -1.1071  1.4305  0.8118
  154MOL   C22649492   3.847   4.027   5.414 -0.3419 -0.0278 -0.5346
  154MOL   C22749493   3.710   4.038   5.489  0.1955  0.2448  0.1393
  154MOL   C22849494   3.651   3.917   5.531  0.3205 -0.4907  0.1230
  154MOL   C22949495   3.528   3.914   5.602  0.6540 -1.0584  0.3669
  154MOL  Cl23049496   3.461   3.763   5.647  0.1064 -0.4169 -0.0443
  154MOL   C23149497   3.462   4.039   5.622  0.3135 -0.2794 -0.1587
  154MOL   C23249498   3.520   4.161   5.581 -0.1335 -0.2446  0.2297
  154MOL   C23349499   3.644   4.162   5.510  0.1437  0.1518  0.4347
  154MOL   C23449500   3.837   4.055   5.257 -0.2124 -0.0159 -0.4891
  154MOL   H23549501   3.878   3.924   5.433  0.8199 -0.2304 -3.3847
  154MOL   H23649502   3.701   3.822   5.516 -1.1326 -1.4443  1.1386
  154MOL   H23749503   3.363   4.028   5.663  0.7650 -2.1318  0.4719
  154MOL   H23849504   3.462   4.252   5.589 -0.7637 -0.5554 -0.6851
  154MOL   H23949505   3.685   4.258   5.481 -1.3873  1.1870  1.6627
  154MOL   H24049506   3.808   4.159   5.242  2.2481  0.5962 -1.1777
  154MOL   H24149507   3.940   4.046   5.221 -0.2753 -1.1383 -0.3938
  154MOL   C24249508   3.768   3.946   5.167 -0.0131 -0.0983 -0.1784
  154MOL   C24349509   3.624   3.929   5.202 -0.0714  0.2734  0.2990
  154MOL   C24449510   3.536   4.040   5.188  0.0423 -0.5461 -0.6056
  154MOL   C24549511   3.399   4.022   5.211  0.1855  0.2221  1.0136
  154MOL  Cl24649512   3.286   4.154   5.179 -0.0661  0.1358 -0.2397
  154MOL   C24749513   3.348   3.899   5.245  0.6913  0.0965  0.6531
  154MOL   C24849514   3.435   3.791   5.258 -1.2653  0.2811  0.0503
  154MOL   C24949515   3.574   3.805   5.238 -0.3967 -0.2140 -0.8381
  154MOL   C25049516   3.793   3.968   5.019 -0.5796  0.0694  0.1211
  154MOL   H25149517   3.812   3.848   5.187 -2.3446 -1.2053 -0.2478
  154MOL   H25249518   3.577   4.136   5.162  3.6458 -2.2806 -1.7134
  154MOL   H25349519   3.242   3.892   5.262  0.4717 -1.6725 -1.2506
  154MOL   H25449520   3.397   3.692   5.278 -0.0137 -0.1247  0.5168
  154MOL   H25549521   3.639   3.720   5.251 -0.4120 -0.3400 -1.5856
  154MOL   H25649522   3.751   4.067   5.008  0.1993  0.3837 -0.0473
  154MOL   H25749523   3.900   3.981   5.003 -0.3867  0.0053  1.3070
  154MOL   C25849524   3.742   3.848   4.937 -0.1243 -0.0656 -0.4306
  154MOL   C25949525   3.608   3.894   4.875  0.6679  0.1368 -0.0390
  154MOL   C26049526   3.613   3.999   4.779  0.3597 -0.1961 -0.9068
  154MOL   C26149527   3.492   4.041   4.718  0.0345 -0.1462  0.1985
  154MOL  Cl26249528   3.490   4.162   4.603  0.3289 -0.1196  0.0340
  154MOL   C26349529   3.370   3.980   4.745  0.3595  0.9184 -0.5752
  154MOL   C26449530   3.364   3.876   4.848 -0.2475  0.1483  1.0260
  154MOL   C26549531   3.485   3.827   4.894  0.3687  0.0529 -0.1430
  154MOL   C26649532   3.850   3.818   4.831 -0.2914 -0.7214 -0.2790
  154MOL   H26749533   3.721   3.760   4.998 -0.6300  0.5088  0.2378
  154MOL   H26849534   3.706   4.051   4.761 -0.9570  2.3311 -0.5331
  154MOL   H26949535   3.284   4.010   4.687  1.1258 -0.1577 -2.3222
  154MOL   H27049536   3.279   3.821   4.886 -0.6586 -0.0195 -0.1418
  154MOL   H27149537   3.491   3.747   4.966  2.5608  1.6180  1.4702
  154MOL   H27249538   3.803   3.780   4.740  0.4959 -3.0370  0.2333
  154MOL   H27349539   3.885   3.917   4.803 -1.7398  0.0029  0.4207
  154MOL   C27449540   3.948   3.710   4.875  0.3472  0.5351 -0.7805
  154MOL   C27549541   3.882   3.576   4.920 -0.1515  0.3187  0.5803
  154MOL   C27649542   3.793   3.511   4.833 -0.4422 -0.2279 -0.6128
  154MOL   C27749543   3.740   3.385   4.870  0.4679 -0.2139 -0.6062
  154MOL  Cl27849544   3.617   3.307   4.780 -0.1748  0.1020 -0.1410
  154MOL   C27949545   3.776   3.322   4.996 -0.2776  0.9834 -1.1976
  154MOL   C28049546   3.869   3.382   5.078  0.2735 -0.0944 -0.2053
  154MOL   C28149547   3.918   3.511   5.044 -0.0306  0.3567  0.0043
  154MOL   C28249548   4.068   3.685   4.789 -0.2324 -0.2873  0.5211
  154MOL   H28349549   3.987   3.739   4.973 -0.3834 -1.3356  0.1018
  154MOL   H28449550   3.762   3.560   4.742 -1.1959  0.6862  0.1285
  154MOL   H28549551   3.752   3.225   5.037  4.1926  0.9806  1.7741
  154MOL   H28649552   3.898   3.324   5.164 -0.8966  1.8880  1.6040
  154MOL   H28749553   3.992   3.556   5.109 -0.1926  1.1540 -0.3633
  154MOL   H28849554   4.119   3.592   4.817  1.8035 -0.1020 -2.3353
  154MOL   H28949555   4.055   3.672   4.682  0.8825 -3.1747  0.6754
  154MOL   C29049556   4.179   3.795   4.792  0.3451  0.3627 -0.7927
  154MOL   C29149557   4.234   3.820   4.929 -0.6998  0.6061  0.1795
  154MOL   C29249558   4.201   3.937   5.003  0.0812  0.3132  0.4713
  154MOL   C29349559   4.241   3.953   5.137 -0.3675  0.0741  0.6332
  154MOL  Cl29449560   4.201   4.094   5.228 -0.0013 -0.2264  0.1988
  154MOL   C29549561   4.324   3.858   5.199  0.2858  0.0811  0.4488
  154MOL   C29649562   4.357   3.743   5.125  0.0988  0.0894 -0.8979
  154MOL   C29749563   4.310   3.719   4.996 -0.4854 -0.3002  1.1583
  154MOL   C29849564   4.292   3.784   4.682 -0.2853  0.3767 -0.4871
  154MOL   H29949565   4.126   3.889   4.775 -1.1915 -0.5479 -1.1010
  154MOL   H30049566   4.138   4.009   4.954  0.2787 -0.9887 -1.7739
  154MOL   H30149567   4.361   3.867   5.301 -0.8420  0.1904  0.8505
  154MOL   H30249568   4.423   3.673   5.175  0.4704  1.7169  0.9653
  154MOL   H30349569   4.336   3.622   4.956  0.2961  0.0651  0.7919
  154MOL   H30449570   4.353   3.699   4.714 -0.1292 -0.0817 -1.9560
  154MOL   H30549571   4.242   3.728   4.602  0.3843 -0.3252 -0.4217
  154MOL   C30649572   4.364   3.912   4.629  0.2075  0.2340 -0.3414
  154MOL   C30749573   4.461   3.974   4.733  0.1704 -0.1156  0.7469
  154MOL   C30849574   4.417   4.089   4.804 -0.4765 -0.3805 -0.2437
  154MOL   C30949575   4.501   4.157   4.892 -0.1910 -0.6513  0.4059
  154MOL  Cl31049576   4.455   4.300   4.978  0.0706 -0.4754 -0.2196
  154MOL   C31149577   4.628   4.103   4.918  0.1892  0.3567 -0.0977
  154MOL   C31249578   4.670   3.986   4.853 -0.0855  0.1653 -0.9304
  154MOL   C31349579   4.591   3.925   4.761  0.6879 -0.5337  0.2700
  154MOL   C31449580   4.438   3.885   4.495 -0.1629  0.4470  0.0989
  154MOL   H31549581   4.285   3.987   4.619  0.0675 -0.1169 -2.0022
  154MOL   H31649582   4.322   4.140   4.790 -2.2126 -2.6018  2.8459
  154MOL   H31749583   4.704   4.146   4.981  1.5522 -0.3756 -1.2208
  154MOL   H31849584   4.766   3.941   4.875  0.0127 -1.2237 -3.9304
  154MOL   H31949585   4.624   3.840   4.704  0.1527 -0.2474 -0.4743
  154MOL   H32049586   4.501   3.971   4.476  0.1889  0.2540  0.3904
  154MOL   H32149587   4.513   3.807   4.508  0.3561  0.9345  0.0284
  154MOL   H32249588   4.370   3.870   4.411 -1.0503  1.3760  0.6418
  155MOL     C149589   5.356   8.099   4.896  0.2161 -0.8311 -0.1431
  155MOL     C249590   5.240   8.111   4.799 -0.0619 -0.1512 -0.0638
  155MOL     C349591   5.226   8.216   4.701  0.7411  0.2907  0.2956
  155MOL     C449592   5.121   8.214   4.608 -0.3655 -0.0024 -0.0391
  155MOL    Cl549593   5.117   8.332   4.485 -0.1602  0.2993 -0.1284
  155MOL     C649594   5.025   8.105   4.609 -0.6103 -0.1520  0.5380
  155MOL     C749595   5.033   8.005   4.707 -0.8022 -0.2587 -0.4275
  155MOL     C849596   5.139   8.012   4.800  0.0721 -0.3313  0.2792
  155MOL     C949597   5.407   8.228   4.956 -0.2085 -0.1483 -0.3984
  155MOL    H1049598   5.437   8.045   4.848 -2.1145 -1.2428 -3.7651
  155MOL    H1149599   5.300   8.295   4.702 -1.7348  2.7192  0.0939
  155MOL    H1249600   4.947   8.112   4.535  0.5978  0.1276 -0.7378
  155MOL    H1349601   4.956   7.930   4.717 -0.2634 -0.7507  0.0599
  155MOL    H1449602   5.136   7.946   4.886  0.0112  1.6071  1.7941
  155MOL    H1549603   5.431   8.289   4.869 -1.5549  1.6863  0.4946
  155MOL    H1649604   5.325   8.283   5.002 -0.1234  1.3969 -2.0037
  155MOL    H1749605   5.321   8.041   4.982 -0.3537 -0.0009  0.1915
  155MOL    C1849606   5.522   8.210   5.062  0.0111  0.0085 -0.6271
  155MOL    C1949607   5.653   8.162   5.000 -0.1457  0.6490 -0.5064
  155MOL    C2049608   5.717   8.237   4.897 -0.0483  0.4414  0.5722
  155MOL    C2149609   5.839   8.191   4.837  0.2768 -0.6701  1.0058
  155MOL   Cl2249610   5.927   8.291   4.727 -0.2238 -0.1096  0.5947
  155MOL    C2349611   5.892   8.073   4.881  0.2945 -0.4350 -0.0936
  155MOL    C2449612   5.819   7.986   4.967  0.1931  0.0723  0.4236
  155MOL    C2549613   5.704   8.034   5.032 -0.3706 -0.3038 -0.7791
  155MOL    C2649614   5.536   8.336   5.145  0.0101  0.3810 -0.3734
  155MOL    H2749615   5.495   8.130   5.131  3.6895  0.4778  1.4906
  155MOL    H2849616   5.682   8.335   4.867 -2.6383  0.2385  2.8212
  155MOL    H2949617   5.981   8.033   4.836  0.7000 -1.2545  1.3986
  155MOL    H3049618   5.868   7.892   4.988 -0.4187 -0.5713 -1.0281
  155MOL    H3149619   5.648   7.977   5.104 -3.0869 -0.0819 -2.6503
  155MOL    H3249620   5.549   8.416   5.072  2.6283  0.4765  0.1474
  155MOL    H3349621   5.441   8.354   5.196  0.2576 -1.2837  0.6955
  155MOL    C3449622   5.659   8.344   5.238  0.3979 -0.0664 -0.2411
  155MOL    C3549623   5.714   0.049   5.251 -0.4670 -0.3176  0.3478
  155MOL    C3649624   5.843   0.074   5.202 -0.2737 -0.0001 -0.3012
  155MOL    C3749625   5.903   0.201   5.201  0.3718  0.3458 -0.9322
  155MOL   Cl3849626   6.057   0.225   5.130 -0.1291  0.2741 -0.0717
  155MOL    C3949627   5.829   0.314   5.241 -0.3017 -0.3060  0.2915
  155MOL    C4049628   5.698   0.293   5.291  0.7895  0.6718  0.1252
  155MOL    C4149629   5.642   0.162   5.301 -0.9909  0.0064 -0.2246
  155MOL    C4249630   5.636   8.273   5.371 -0.5269 -0.1891  0.1878
  155MOL    H4349631   5.742   8.288   5.197  0.3480  0.1792 -0.6751
  155MOL    H4449632   5.904   8.431   5.160 -0.9314  0.2989 -1.8372
  155MOL    H4549633   5.861   0.417   5.227  1.9154 -1.1806 -1.4766
  155MOL    H4649634   5.636   0.371   5.331 -0.6400 -0.4727  0.2140
  155MOL    H4749635   5.544   0.145   5.342 -0.6350 -1.9946 -0.1218
  155MOL    H4849636   5.574   8.341   5.429  0.4680  1.1370 -0.2747
  155MOL    H4949637   5.584   8.177   5.365 -2.2432  0.7312  0.2307
  155MOL    C5049638   5.762   8.266   5.457 -0.5616  0.2253 -0.1601
  155MOL    C5149639   5.736   8.200   5.593 -0.3946 -0.5214  0.0914
  155MOL    C5249640   5.780   8.264   5.710  0.0093 -0.0677 -0.2509
  155MOL    C5349641   5.752   8.204   5.833  0.7419 -0.0032 -1.1946
  155MOL   Cl5449642   5.811   8.281   5.974 -0.2734  0.2370  0.0159
  155MOL    C5549643   5.686   8.083   5.840  0.2812 -0.3176 -0.4940
  155MOL    C5649644   5.638   8.022   5.723 -0.4638  0.4135  0.7174
  155MOL    C5749645   5.670   8.077   5.599  0.5127  0.3358  0.0599
  155MOL    C5849646   5.891   8.192   5.402  0.2731 -0.1073 -0.3461
  155MOL    H5949647   5.811   8.362   5.469  3.4735 -1.7248 -0.3735
  155MOL    H6049648   5.841   8.353   5.709  1.3559 -0.9539  0.9233
  155MOL    H6149649   5.682   8.044   5.940  1.5074  0.9051  0.0403
  155MOL    H6249650   5.585   7.929   5.738  3.0613 -1.7712  0.2716
  155MOL    H6349651   5.635   8.027   5.510  0.2528  3.8462 -1.8969
  155MOL    H6449652   5.895   8.086   5.426 -0.0968 -0.1001 -0.2458
  155MOL    H6549653   5.885   8.194   5.294  0.6007  0.5764 -0.3560
  155MOL    C6649654   6.029   8.250   5.429  0.1972 -0.3065 -0.5434
  155MOL    C6749655   6.094   8.217   5.570  0.1398  0.4765 -0.1822
  155MOL    C6849656   6.118   8.087   5.614  0.3270 -0.2973 -0.1038
  155MOL    C6949657   6.162   8.058   5.748 -0.2798  1.0731 -0.2752
  155MOL   Cl7049658   6.173   7.902   5.808  0.1748  0.0598 -0.1505
  155MOL    C7149659   6.193   8.162   5.833 -0.3297 -0.2524  0.3079
  155MOL    C7249660   6.184   8.294   5.784 -0.0355 -0.1479 -0.4536
  155MOL    C7349661   6.132   8.322   5.656  0.5643 -0.7762  0.4291
  155MOL    C7449662   6.127   8.214   5.313 -0.3441 -0.1475  0.2765
  155MOL    H7549663   6.028   8.357   5.412  0.1741 -0.1188  0.6454
  155MOL    H7649664   6.107   8.008   5.541  0.8843  0.0632 -0.5832
  155MOL    H7749665   6.237   8.142   5.929 -0.2578 -1.0538  0.1154
  155MOL    H7849666   6.209   8.373   5.852  0.4300 -0.3947 -0.3345
  155MOL    H7949667   6.133   8.426   5.630  1.1461 -0.8381  0.2087
  155MOL    H8049668   6.136   8.106   5.295  4.5827  0.2393 -0.3990
  155MOL    H8149669   6.090   8.252   5.218  1.0229 -1.8234 -0.9620
  155MOL    C8249670   6.269   8.273   5.312 -0.1350  0.2728 -0.6097
  155MOL    C8349671   6.352   8.211   5.193 -0.0038 -0.3653 -0.1133
  155MOL    C8449672   6.304   8.225   5.062  0.3072  0.1897 -0.6541
  155MOL    C8549673   6.371   8.181   4.944 -0.2624 -0.8267 -0.1208
  155MOL   Cl8649674   6.306   8.208   4.787 -0.1191 -0.1598  0.3102
  155MOL    C8749675   6.489   8.105   4.967  0.3908 -0.9309 -0.0017
  155MOL    C8849676   6.535   8.088   5.100  0.5669  0.4602 -0.0445
  155MOL    C8949677   6.465   8.135   5.219 -0.6683  0.6683  0.7383
  155MOL    C9049678   6.275   8.429   5.321 -0.0975 -0.1018  0.0257
  155MOL    H9149679   6.322   8.248   5.404 -1.1344  0.3796  0.0013
  155MOL    H9249680   6.211   8.274   5.041 -0.8724 -2.0932 -0.9250
  155MOL    H9349681   6.549   8.070   4.885 -1.2900  1.2783 -2.2601
  155MOL    H9449682   6.630   8.038   5.114  0.8711  1.6582  2.5287
  155MOL    H9549683   6.505   8.119   5.319 -0.1779 -1.0920  0.2919
  155MOL    H9649684   6.218   0.023   5.233  1.0492  1.0402 -0.3564
  155MOL    H9749685   6.232   0.025   5.416  0.5769  0.1917  0.2331
  155MOL    C9849686   6.419   0.056   5.309 -0.3797  0.4918 -0.2904
  155MOL    C9949687   6.439   0.128   5.173  0.2626  0.1644 -0.2109
  155MOL   C10049688   6.382   0.258   5.148  0.0156 -0.2059 -0.3529
  155MOL   C10149689   6.399   0.322   5.026 -0.5988 -1.1543 -0.2932
  155MOL  Cl10249690   6.349   0.485   4.993  0.1815  0.2250 -0.5521
  155MOL   C10349691   6.464   0.252   4.925  0.8344  0.3075  0.7480
  155MOL   C10449692   6.523   0.125   4.948  0.8093  0.3262  0.3190
  155MOL   C10549693   6.512   0.071   5.072 -0.1265  0.4491 -0.1077
  155MOL   C10649694   6.433   0.158   5.425  0.5823  0.3045  0.4167
  155MOL   H10749695   6.495   8.413   5.307 -0.7213  0.1698 -0.6444
  155MOL   H10849696   6.322   0.293   5.231  0.6286  0.6863 -0.2818
  155MOL   H10949697   6.474   0.295   4.827  2.2976 -1.1464  0.2300
  155MOL   H11049698   6.564   0.069   4.865 -0.4531 -0.1074 -0.0317
  155MOL   H11149699   6.544   8.404   5.089  0.9613  1.0635  1.6886
  155MOL   H11249700   6.517   0.221   5.397  0.2126  1.4687  1.8779
  155MOL   H11349701   6.350   0.226   5.444  0.0018  0.1258 -1.4187
  155MOL   C11449702   6.466   0.096   5.559  0.6632  0.1801  0.7459
  155MOL   C11549703   6.591   0.007   5.548  0.4916  0.0657  0.6422
  155MOL   C11649704   6.718   0.065   5.514 -0.0315  0.0632 -0.1444
  155MOL   C11749705   6.829   8.417   5.509  1.0219  0.2719 -0.4848
  155MOL  Cl11849706   6.977   0.057   5.479  0.0057 -0.2078 -0.7469
  155MOL   C11949707   6.820   8.280   5.534  0.0880  0.2678 -0.7564
  155MOL   C12049708   6.690   8.221   5.537 -0.2811 -0.0506 -0.4081
  155MOL   C12149709   6.576   8.304   5.544  0.5406  0.2459 -0.1874
  155MOL   C12249710   6.480   0.197   5.674  0.3563 -0.2450 -0.5717
  155MOL   H12349711   6.381   0.030   5.577 -1.5027  2.7235  0.1769
  155MOL   H12449712   6.731   0.168   5.484 -2.1949  0.5387  0.4738
  155MOL   H12549713   6.897   8.204   5.527  0.0059  0.1574 -0.4229
  155MOL   H12649714   6.675   8.116   5.554 -0.4975  0.2305  1.1510
  155MOL   H12749715   6.476   8.270   5.563  1.1035 -2.3495 -1.5596
  155MOL   H12849716   6.532   0.281   5.628  0.4695 -0.2154 -0.3899
  155MOL   H12949717   6.380   0.230   5.705  0.5252 -0.5876  0.3323
  155MOL   C13049718   6.562   0.152   5.793 -0.5161 -0.0778  0.1855
  155MOL   C13149719   6.603   0.270   5.881  0.2775 -0.3617 -0.2423
  155MOL   C13249720   6.737   0.322   5.872 -0.5487  0.5386 -0.0865
  155MOL   C13349721   6.763   0.439   5.945 -0.0534  0.4049 -0.1590
  155MOL  Cl13449722   6.917   0.511   5.936  0.0921 -0.0227  0.3319
  155MOL   C13549723   6.670   0.494   6.035  0.4042  0.0272 -0.2573
  155MOL   C13649724   6.538   0.443   6.038  0.1438  0.4808  0.6993
  155MOL   C13749725   6.504   0.339   5.954  0.0586  0.0675 -0.7533
  155MOL   C13849726   6.500   0.045   5.887 -0.2176  0.0336 -0.2697
  155MOL   H13949727   6.661   0.114   5.768  0.1913  2.0746 -0.3837
  155MOL   H14049728   6.818   0.268   5.826 -0.3725 -0.1681  1.0485
  155MOL   H14149729   6.690   0.582   6.095  0.2690 -0.2162  0.1472
  155MOL   H14249730   6.471   0.484   6.113 -1.2753  0.9140 -0.7800
  155MOL   H14349731   6.401   0.306   5.954 -0.5418  1.7594 -2.6994
  155MOL   H14449732   6.409   0.101   5.909  1.2212  2.6637 -0.7413
  155MOL   H14549733   6.474   8.385   5.841  0.9983 -0.8675  0.8850
  155MOL   C14649734   6.583   0.014   6.017  0.1158  0.0216  0.6429
  155MOL   C14749735   6.484   8.417   6.125  0.4069  0.3015 -0.1504
  155MOL   C14849736   6.412   8.297   6.130 -0.1169 -0.4954  0.7507
  155MOL   C14949737   6.315   8.274   6.227 -0.1780  0.0826  0.9672
  155MOL  Cl15049738   6.231   8.124   6.235 -0.0893 -0.1121 -0.0769
  155MOL   C15149739   6.302   8.371   6.332  0.1222  0.2790 -0.5242
  155MOL   C15249740   6.378   0.056   6.337 -0.2269 -0.2148  0.2665
  155MOL   C15349741   6.466   0.075   6.230 -0.3208 -0.6122  0.2858
  155MOL   C15449742   6.678   8.331   5.988  0.5512 -0.1839 -0.7621
  155MOL   H15549743   6.645   0.097   6.050 -0.4296  1.3493 -1.5836
  155MOL   H15649744   6.412   8.231   6.045 -1.5125  2.0566 -1.3140
  155MOL   H15749745   6.232   8.355   6.413  0.5203 -0.8332 -0.3951
  155MOL   H15849746   6.370   0.135   6.410 -0.2771  1.0187 -1.0476
  155MOL   H15949747   6.532   0.160   6.234  0.8414 -1.4309 -0.9394
  155MOL   H16049748   6.627   8.236   5.968 -2.2826  0.6251  2.2786
  155MOL   H16149749   6.725   8.341   5.890  1.0170  0.3158 -0.4908
  155MOL   C16249750   6.799   8.310   6.090 -0.1808  0.2283  1.6183
  155MOL   C16349751   6.892   8.429   6.095 -0.0825  0.0039 -0.8290
  155MOL   C16449752   7.010   8.419   6.017 -0.0485  0.0657 -0.4388
  155MOL   C16549753   7.096   0.097   6.010  0.2229  0.3092  0.0213
  155MOL  Cl16649754   7.235   0.077   5.914 -0.0089 -0.0819 -0.0871
  155MOL   C16749755   7.071   0.211   6.091 -0.1388  0.0546  0.2811
  155MOL   C16849756   6.953   0.225   6.162  1.1565  0.8263 -0.7346
  155MOL   C16949757   6.866   0.112   6.167  0.1162  1.1369  0.1455
  155MOL   C17049758   6.754   8.271   6.235  0.1163  0.3161 -0.1853
  155MOL   H17149759   6.863   8.232   6.048 -1.8448 -0.0492 -0.4851
  155MOL   H17249760   7.042   8.335   5.956  1.3876 -0.4073  0.9421
  155MOL   H17349761   7.131   0.300   6.077 -0.5544  0.3206  0.1929
  155MOL   H17449762   6.931   0.315   6.217 -0.1757 -0.1861  0.4280
  155MOL   H17549763   6.784   0.111   6.238  0.7946  1.4655  0.9368
  155MOL   H17649764   6.843   8.287   6.296 -0.3092 -1.5675  0.9652
  155MOL   H17749765   6.682   8.347   6.267  1.8688  1.6943  0.5918
  155MOL   C17849766   6.699   8.127   6.249  0.8774 -0.4395 -0.4101
  155MOL   C17949767   6.797   8.013   6.223  0.0147  0.3356  0.6651
  155MOL   C18049768   6.934   8.030   6.252  0.2993 -0.7703 -0.5204
  155MOL   C18149769   7.026   7.933   6.211 -0.2978  0.1587  0.4500
  155MOL  Cl18249770   7.196   7.949   6.239  0.1572  0.2373  0.1472
  155MOL   C18349771   6.977   7.816   6.148  0.0208  0.8381 -0.3491
  155MOL   C18449772   6.841   7.800   6.109  1.1182 -0.6055  0.1889
  155MOL   C18549773   6.753   7.899   6.153 -0.3690 -0.0837  0.1246
  155MOL   C18649774   6.611   8.092   6.372  0.6326  0.3005  0.3817
  155MOL   H18749775   6.623   8.132   6.172 -0.9637 -1.1973  1.3077
  155MOL   H18849776   6.972   8.118   6.303 -0.6331 -0.1106 -0.9483
  155MOL   H18949777   7.045   7.739   6.113 -1.1850  0.4209 -1.8348
  155MOL   H19049778   6.799   7.721   6.049  1.1789 -0.2274 -0.3500
  155MOL   H19149779   6.648   7.897   6.128 -0.2801  2.4813 -0.6629
  155MOL   H19249780   6.521   8.153   6.372  1.0185  0.9356  3.3282
  155MOL   H19349781   6.567   7.995   6.347 -1.0274  1.0176  0.4581
  155MOL   C19449782   6.676   8.089   6.516  0.0999 -0.0316 -0.8387
  155MOL   C19549783   6.722   8.220   6.572  0.5222 -0.3886 -0.5601
  155MOL   C19649784   6.837   8.226   6.655 -0.8876  0.2053 -0.2742
  155MOL   C19749785   6.876   8.345   6.719  0.0948  0.5976 -0.0438
  155MOL  Cl19849786   7.003   8.346   6.836  0.4253  0.2834  0.2864
  155MOL   C19949787   6.807   0.027   6.691 -0.0779  0.1647 -0.6859
  155MOL   C20049788   6.714   0.030   6.587 -0.1773  0.1794 -0.6220
  155MOL   C20149789   6.664   8.346   6.533 -0.6510  0.3597  0.2386
  155MOL   C20249790   6.582   8.025   6.617 -0.5797  0.8199  0.1434
  155MOL   H20349791   6.768   8.034   6.500 -0.6246 -1.4350 -0.2645
  155MOL   H20449792   6.898   8.137   6.668  1.8199  1.5095 -3.2205
  155MOL   H20549793   6.821   0.110   6.759 -2.1515 -0.3832  0.4624
  155MOL   H20649794   6.668   0.127   6.580 -0.5843  0.1403  1.2425
  155MOL   H20749795   6.575   8.349   6.473 -0.2555  0.4722 -0.3428
  155MOL   H20849796   6.633   8.026   6.713  0.0811  0.3992 -0.1951
  155MOL   H20949797   6.493   8.087   6.630 -0.4626  1.1892 -0.7361
  155MOL   C21049798   6.549   7.873   6.601 -0.1017 -0.7031  0.2626
  155MOL   C21149799   6.674   7.796   6.558  0.6971  0.0258  0.0142
  155MOL   C21249800   6.667   7.697   6.458  0.2938  0.4340 -0.7873
  155MOL   C21349801   6.785   7.629   6.419  0.6654 -0.0722  0.3892
  155MOL  Cl21449802   6.786   7.521   6.285 -0.0068  0.2266 -0.2168
  155MOL   C21549803   6.912   7.659   6.477  0.0757  0.9378 -0.2062
  155MOL   C21649804   6.919   7.740   6.592  0.0754  0.8490  0.0397
  155MOL   C21749805   6.801   7.805   6.633  0.7631  0.0496  0.3117
  155MOL   C21849806   6.500   7.811   6.735  0.1861 -0.2983 -0.5905
  155MOL   H21949807   6.477   7.866   6.519  0.2284  0.7869 -0.1696
  155MOL   H22049808   6.577   7.689   6.398 -0.0872 -0.9233 -0.0492
  155MOL   H22149809   6.993   7.593   6.450  0.0272  0.7365  0.1333
  155MOL   H22249810   7.009   7.751   6.651  0.0418 -0.1106  0.2862
  155MOL   H22349811   6.807   7.867   6.722  0.9398  0.3278  0.1051
  155MOL   H22449812   6.582   7.806   6.806 -1.6871  2.2147  1.8754
  155MOL   H22549813   6.418   7.867   6.782 -0.0504 -0.9975 -0.1699
  155MOL   C22649814   6.443   7.666   6.727 -0.2087  0.3332 -0.0778
  155MOL   C22749815   6.436   7.611   6.869  0.2535  0.1441  0.7927
  155MOL   C22849816   6.315   7.602   6.945  0.3932 -0.1227  0.2549
  155MOL   C22949817   6.315   7.556   7.075  0.2343 -0.4721 -0.0382
  155MOL  Cl23049818   6.177   7.566   7.177  0.3348  0.0092  0.2681
  155MOL   C23149819   6.436   7.498   7.132 -0.5843  0.1737  0.2022
  155MOL   C23249820   6.554   7.497   7.052  0.6530  0.2399  0.1457
  155MOL   C23349821   6.553   7.549   6.923 -0.6134 -0.3899  0.7640
  155MOL   C23449822   6.313   7.651   6.644  0.4751  0.2215 -0.3509
  155MOL   H23549823   6.520   7.602   6.684 -0.4394 -0.2963  0.4352
  155MOL   H23649824   6.225   7.643   6.901  1.2059  1.7408  0.2830
  155MOL   H23749825   6.432   7.458   7.232 -0.2654  0.4657  0.3309
  155MOL   H23849826   6.641   7.453   7.101  0.1300 -1.4594 -0.4291
  155MOL   H23949827   6.642   7.546   6.862 -0.4327  1.5381  0.8856
  155MOL   H24049828   6.224   7.689   6.695 -1.3951 -2.5767 -1.4091
  155MOL   H24149829   6.332   7.715   6.558  3.0980  0.1091  0.1035
  155MOL   C24249830   6.296   7.500   6.595  0.1939  0.5111  0.1265
  155MOL   C24349831   6.240   7.416   6.705  0.0764  0.9360 -0.2465
  155MOL   C24449832   6.102   7.413   6.744 -0.2696 -0.1901 -0.2171
  155MOL   C24549833   6.045   7.316   6.830 -0.3514 -0.0276  0.1466
  155MOL  Cl24649834   5.874   7.307   6.852 -0.2718 -0.1844 -0.1125
  155MOL   C24749835   6.132   7.230   6.899  0.4695 -0.2353 -0.1581
  155MOL   C24849836   6.266   7.236   6.876 -0.5539 -0.3129 -0.3077
  155MOL   C24949837   6.323   7.325   6.781 -0.0506 -0.2037  0.6985
  155MOL   C25049838   6.197   7.489   6.470  0.7049 -0.1440 -0.0980
  155MOL   H25149839   6.391   7.455   6.566 -0.4142 -2.7036  2.8842
  155MOL   H25249840   6.029   7.482   6.705 -3.2803 -3.3216 -0.4179
  155MOL   H25349841   6.094   7.149   6.959  0.2824 -0.2404 -0.2799
  155MOL   H25449842   6.333   7.175   6.934  1.5779  1.0585 -1.2246
  155MOL   H25549843   6.428   7.311   6.761 -0.2183  0.2274 -0.5478
  155MOL   H25649844   6.100   7.444   6.490 -1.2634  4.6373  2.0690
  155MOL   H25749845   6.171   7.590   6.439 -0.3226  0.1315  1.5449
  155MOL   C25849846   6.256   7.419   6.346 -0.3796  0.3203 -0.0260
  155MOL   C25949847   6.318   7.284   6.372  0.7639 -0.4169 -0.5539
  155MOL   C26049848   6.251   7.176   6.447  0.6017 -0.4505  0.4673
  155MOL   C26149849   6.305   7.053   6.478  0.4017  0.0987  0.8067
  155MOL  Cl26249850   6.222   6.940   6.579 -0.1277 -0.1611  0.3274
  155MOL   C26349851   6.439   7.024   6.444 -0.0514  0.6065  0.2969
  155MOL   C26449852   6.511   7.128   6.378 -0.2998 -0.5727  0.1818
  155MOL   C26549853   6.455   7.262   6.350 -0.3311  0.5599  1.0402
  155MOL   C26649854   6.152   7.419   6.233  1.0520 -0.3198  0.6130
  155MOL   H26749855   6.336   7.490   6.325 -2.4526  2.2995 -1.5003
  155MOL   H26849856   6.145   7.189   6.458  0.5818 -0.6899  0.5704
  155MOL   H26949857   6.493   6.936   6.477 -1.2517 -0.6909 -1.1334
  155MOL   H27049858   6.617   7.111   6.368 -0.2842 -0.1299 -0.3950
  155MOL   H27149859   6.516   7.341   6.308 -1.1796  1.0368  0.7064
  155MOL   H27249860   6.167   7.336   6.163 -0.3546 -0.3887  0.3828
  155MOL   H27349861   6.058   7.387   6.278  0.2444 -0.8295 -1.3465
  155MOL   C27449862   6.149   7.562   6.160  0.3663  0.1569  0.1191
  155MOL   C27549863   6.284   7.609   6.093 -0.8348  0.0538 -0.7794
  155MOL   C27649864   6.309   7.751   6.077  0.1169  1.0728 -0.1117
  155MOL   C27749865   6.424   7.794   6.018 -0.0848  0.1366  0.3101
  155MOL  Cl27849866   6.456   7.951   5.977  0.4149 -0.3534  0.0395
  155MOL   C27949867   6.515   7.700   5.969  0.3429  0.5247  0.2950
  155MOL   C28049868   6.503   7.563   5.992 -0.0019 -0.1866  0.0725
  155MOL   C28149869   6.387   7.521   6.049 -0.1679 -0.3954 -0.3492
  155MOL   C28249870   6.029   7.570   6.063  0.3938  0.4712  0.0357
  155MOL   H28349871   6.138   7.638   6.237  1.7361  0.3703  0.1163
  155MOL   H28449872   6.232   7.824   6.098 -1.1253 -0.3155  0.2921
  155MOL   H28549873   6.599   7.738   5.913 -0.9448  3.1895  0.0769
  155MOL   H28649874   6.568   7.487   5.950  2.8410  1.9762  0.4141
  155MOL   H28749875   6.377   7.415   6.064  0.1073 -0.5622 -1.3184
  155MOL   H28849876   6.051   7.647   5.990 -2.3149  0.1202 -1.1923
  155MOL   H28949877   6.014   7.490   5.991  0.2869  0.0783  0.4920
  155MOL   C29049878   5.893   7.597   6.133  0.3248 -0.4285  0.4602
  155MOL   C29149879   5.899   7.728   6.211  0.0675 -0.0972 -0.0979
  155MOL   C29249880   5.864   7.744   6.345  0.1918 -0.2639  0.5612
  155MOL   C29349881   5.861   7.865   6.414  0.1823 -0.0232 -0.1444
  155MOL  Cl29449882   5.800   7.856   6.576 -0.1261 -0.1274 -0.0601
  155MOL   C29549883   5.887   7.986   6.345  0.5550  0.6769 -0.3566
  155MOL   C29649884   5.917   7.979   6.208 -0.0799  0.0791 -0.1224
  155MOL   C29749885   5.921   7.853   6.142 -0.1465  0.1200 -0.3200
  155MOL   C29849886   5.781   7.595   6.024 -0.1963 -0.0678  0.3567
  155MOL   H29949887   5.871   7.513   6.199  1.6654 -1.0988  0.0869
  155MOL   H30049888   5.852   7.652   6.400 -0.7017 -1.0541 -0.9285
  155MOL   H30149889   5.880   8.086   6.387  0.9330 -0.3180  2.1495
  155MOL   H30249890   5.934   8.065   6.144 -0.1156  0.2974  0.1581
  155MOL   H30349891   5.948   7.853   6.037 -3.2399 -1.3464 -1.1984
  155MOL   H30449892   5.800   7.681   5.960 -0.4975  0.1057  0.4994
  155MOL   H30549893   5.785   7.499   5.972  0.3319  0.4811 -0.6338
  155MOL   C30649894   5.633   7.614   6.065  0.1795  0.0976 -0.0131
  155MOL   C30749895   5.540   7.657   5.956  0.3051  0.9107 -0.9442
  155MOL   C30849896   5.500   7.564   5.858 -0.3051 -0.0380  0.2450
  155MOL   C30949897   5.400   7.600   5.762  0.5513 -0.4342  0.5484
  155MOL  Cl31049898   5.365   7.476   5.638  0.0580 -0.2633  0.0119
  155MOL   C31149899   5.358   7.735   5.755 -0.2969  0.5167 -0.0529
  155MOL   C31249900   5.385   7.828   5.855 -1.5232  0.1848 -0.0664
  155MOL   C31349901   5.481   7.789   5.959  0.2416  0.2577  0.3771
  155MOL   C31449902   5.569   7.502   6.156 -0.6188 -0.7295  0.0564
  155MOL   H31549903   5.646   7.700   6.132 -0.3111  1.4716 -1.6281
  155MOL   H31649904   5.541   7.464   5.861 -2.2063 -0.8126  1.4099
  155MOL   H31749905   5.294   7.763   5.673  1.0776  1.3811 -0.8489
  155MOL   H31849906   5.334   7.922   5.865 -0.0669  1.0568 -0.6581
  155MOL   H31949907   5.505   7.857   6.039  2.0965  2.5377 -2.0214
  155MOL   H32049908   5.461   7.512   6.164 -0.7928 -1.2541 -1.4872
  155MOL   H32149909   5.587   7.401   6.120 -1.2843 -0.4306 -1.1318
  155MOL   H32249910   5.599   7.514   6.260  2.3880  0.5613 -0.9015
   8.43512   8.43512   8.43512
